# vtk DataFile Version 3.0
vtk output
ASCII
DATASET POLYDATA
POINTS 724 float
11.2281 -11.4655 13.3285 11.2501 -11.7922 13.085 11.2354 -11.1057 13.7081 
11.295 -12.088 12.9495 11.2704 -10.776 14.1581 11.3023 -11.2299 13.8042 
11.3645 -12.3627 12.9003 11.3277 -10.4575 14.6792 11.3276 -11.5023 13.6006 
11.3286 -10.9344 14.2125 11.3655 -11.7487 13.4659 11.4048 -11.9962 13.3392 
11.4435 -12.5905 12.9255 11.3632 -10.6457 14.6451 11.4021 -10.1453 15.2578 
11.3817 -11.1776 14.1388 11.4722 -12.1612 13.3761 11.4223 -11.4475 13.9731 
11.4156 -10.3549 15.14 11.4076 -10.8532 14.6018 11.533 -12.7867 13.0081 
11.4943 -9.81654 15.9157 11.4729 -11.7225 13.8306 11.5435 -12.3561 13.3943 
11.4808 -10.046 15.6891 11.447 -10.5355 15.0977 11.4539 -11.0859 14.5118 
11.547 -11.933 13.832 11.6295 -12.9506 13.1395 11.4973 -11.3396 14.3647 
11.5837 -9.52166 16.5224 11.5021 -10.2023 15.6519 11.4827 -10.7428 15.0199 
11.625 -12.531 13.4626 11.5618 -9.82035 16.2315 11.5532 -11.5631 14.2847 
11.6258 -12.1368 13.852 11.5219 -10.9673 14.914 11.5254 -10.3987 15.5595 
11.6874 -9.18627 17.2062 11.7328 -13.0858 13.3183 11.7119 -12.7078 13.5518 
11.6239 -11.7622 14.277 11.6431 -9.49965 16.8275 11.5656 -11.1936 14.7999 
11.5781 -10.03 16.135 11.5548 -10.6082 15.4562 11.7115 -12.3502 13.8852 
11.6226 -11.4029 14.7352 11.6464 -9.69034 16.7148 11.5996 -10.2436 16.0204 
11.5895 -10.8247 15.3458 11.7009 -11.9719 14.2727 11.8242 -13.1767 13.5044 
11.7418 -9.1439 17.4997 11.8055 -8.79474 17.9726 11.7968 -12.6895 13.8113 
11.6321 -11.0409 15.2428 11.6918 -11.6072 14.7057 11.6591 -9.88721 16.6059 
11.6265 -10.4581 15.9032 11.7811 -12.2338 14.2233 11.7373 -9.31567 17.3844 
11.882 -12.8729 13.9014 11.6874 -11.2492 15.173 11.659 -10.6739 15.7871 
11.6773 -10.0945 16.4814 11.7672 -11.8367 14.6591 11.737 -9.50528 17.2516 
11.8451 -8.81911 18.1605 11.9205 -8.3905 18.7144 11.9268 -13.2497 13.741 
11.8567 -12.4338 14.2394 11.6997 -10.8876 15.6837 11.7539 -11.4643 15.1148 
11.7013 -10.3067 16.3542 11.7438 -9.71045 17.1077 11.8351 -9.03217 18.001 
11.8452 -12.0438 14.652 11.9357 -12.6151 14.2946 12.0304 -7.97164 19.4248 
11.9456 -8.49316 18.7939 11.9855 -12.9421 14.1474 11.7518 -11.0999 15.5993 
11.7312 -10.5205 16.2321 11.7577 -9.92448 16.9596 11.8275 -9.26981 17.8057 
11.828 -11.6732 15.0801 12.0295 -13.2938 14.0046 11.9272 -12.2503 14.6631 
11.9266 -8.77864 18.5531 11.7694 -10.7336 16.1219 11.8296 -9.50648 17.6176 
11.7781 -10.1421 16.8151 11.8155 -11.3088 15.5378 11.9092 -11.8884 15.0572 
12.0635 -7.99081 19.5732 12.0134 -12.5517 14.5935 12.1584 -7.43731 20.2495 
11.9166 -9.05137 18.3197 12.0773 -12.9073 14.4481 11.8399 -9.73951 17.4412 
11.8053 -10.3582 16.6824 11.8187 -10.9437 16.0316 12.0368 -8.27372 19.3151 
11.8896 -11.5254 15.4843 12.1236 -13.3093 14.2668 11.9979 -12.1628 14.9865 
11.9169 -9.30851 18.1073 12.0171 -8.56373 19.0565 11.8572 -9.96561 17.2819 
11.8417 -10.5714 16.5658 11.8797 -11.1584 15.9523 11.9738 -11.7771 15.4067 
12.0868 -12.4797 14.8895 12.1702 -7.59927 20.2278 12.276 -6.89798 20.9972 
12.0076 -8.84462 18.8111 12.1606 -12.8317 14.7586 11.9254 -9.549 17.9217 
11.8825 -10.1856 17.1401 11.8884 -10.7861 16.4614 12.1333 -7.98005 19.875 
12.2099 -13.3037 14.5205 11.9524 -11.3927 15.8636 12.0629 -12.0542 15.3166 
12.3021 -6.95321 21.0767 12.0089 -9.0999 18.6036 12.1101 -8.31911 19.5674 
11.9406 -9.779 17.7557 11.9171 -10.4033 17.0123 11.9464 -11.0107 16.358 
12.1506 -12.3461 15.2241 12.0346 -11.6402 15.7735 12.2606 -7.34227 20.7204 
12.2468 -12.9469 14.9073 12.4106 -6.21605 21.836 12.1047 -8.59971 19.3341 
12.016 -9.34228 18.4155 11.9639 -10.0032 17.6049 11.9613 -10.6247 16.8906 
12.1205 -11.8922 15.6899 12.2234 -7.74132 20.3533 12.0161 -11.2425 16.2594 
12.2327 -12.5669 15.2213 12.3076 -13.2753 14.8234 12.4161 -6.43693 21.7521 
12.1062 -8.86031 19.1248 12.0292 -9.5763 18.2429 12.2117 -8.04153 20.1073 
11.9965 -10.2265 17.4641 12.205 -12.1175 15.6474 12.0164 -10.8495 16.7771 
12.0962 -11.4768 16.1716 12.3495 -7.04141 21.2064 12.3296 -12.8371 15.2397 
12.535 -5.51716 22.5882 12.1121 -9.10957 18.93 12.2085 -8.32097 19.8827 
12.0506 -9.80606 18.0815 12.2906 -12.3591 15.6066 12.0386 -10.4501 17.3327 
12.0837 -11.0756 16.6761 12.182 -11.7016 16.1098 12.3303 -7.38917 20.9337 
12.3971 -13.2295 15.1169 12.4732 -6.31652 22.0073 12.5671 -5.57222 22.6672 
12.2095 -8.58939 19.6684 12.1234 -9.35141 18.747 12.081 -10.0336 17.9304 
12.322 -7.6989 20.6931 12.0916 -10.6736 17.2136 12.2712 -11.9347 16.0544 
12.163 -11.2985 16.5951 12.3726 -12.5342 15.6491 12.4573 -6.65472 21.7762 
12.431 -12.8533 15.5155 12.6681 -4.68439 23.3636 12.2138 -8.84879 19.464 
12.1427 -9.58835 18.5748 12.319 -7.99462 20.4607 12.1214 -10.2593 17.7915 
12.1573 -10.8958 17.1117 12.2512 -11.5267 16.5247 12.3606 -12.1384 16.0505 
12.4454 -6.98495 21.5384 12.4931 -13.1595 15.4507 12.5883 -5.74611 22.6517 
12.2236 -9.10135 19.2695 12.3188 -8.27994 20.2348 12.1712 -9.82154 18.4143 
12.1728 -10.4836 17.6672 12.6938 -4.84127 23.3716 12.4388 -7.30892 21.2972 
12.4505 -12.4233 15.9809 12.2363 -11.1218 17.0222 12.3433 -11.7447 16.4846 
12.5766 -6.11601 22.426 12.5192 -12.7396 15.8711 12.7891 -3.84287 24.0346 
12.3217 -8.55658 20.0164 12.2408 -9.34778 19.0862 12.4353 -7.62617 21.0546 
12.2096 -10.0519 18.2671 12.237 -10.7102 17.5556 12.3255 -11.3464 16.9529 
12.5661 -6.49124 22.1743 12.4383 -12.0072 16.4144 12.7043 -5.12697 23.2743 
12.5812 -13.0735 15.7825 12.3298 -8.82369 19.8095 12.4339 -7.93644 20.8129 
12.2668 -9.58943 18.9151 12.5279 -12.3021 16.3262 12.2591 -10.2826 18.132 
12.5598 -6.85783 21.9157 12.8121 -4.08888 23.9993 12.3152 -10.9389 17.4592 
12.4206 -11.5979 16.8705 12.6953 -5.54176 23.0447 12.6013 -12.6275 16.2158 
12.9008 -2.99814 24.6136 12.4358 -8.23336 20.582 12.3447 -9.08314 19.6141 
12.5553 -7.2199 21.6487 12.3025 -9.82897 18.7557 12.6868 -5.96702 22.7824 
12.3218 -10.5159 18.0092 12.5153 -11.8752 16.7774 12.4044 -11.1853 17.3591 
12.8184 -4.47021 23.8573 12.663 -12.9717 16.1181 12.5538 -7.55951 21.3948 
12.4421 -8.51831 20.3629 12.6798 -6.39909 22.4943 12.3676 -9.33742 19.4299 
12.6041 -12.1794 16.6739 12.3499 -10.0695 18.6072 12.8114 -4.95003 23.6162 
12.3982 -10.7615 17.8877 12.9244 -3.32658 24.5539 12.4987 -11.4516 17.2537 
12.6786 -12.5077 16.5624 12.6777 -6.7924 22.2251 12.5553 -7.87944 21.1546 
12.8011 -5.48063 23.309 12.4543 -8.79447 20.1545 13.005 -2.16207 25.1099 
12.4005 -9.58981 19.2559 12.4103 -10.3182 18.4623 12.5917 -11.7392 17.1433 
12.9279 -3.81908 24.3743 12.4857 -11.0222 17.7651 12.7392 -12.8545 16.46 
12.9136 -4.49117 24.0482 12.8005 -5.93317 23.0388 12.678 -7.15526 21.9713 
12.5602 -8.18513 20.9251 12.6785 -12.0475 17.0305 12.4739 -9.06484 19.956 
12.4449 -9.84603 19.0874 12.4845 -10.5782 18.3192 12.5776 -11.2995 17.6415 
13.0304 -2.60501 25.0235 12.7519 -12.3748 16.9183 13.0117 -3.48186 24.6733 
12.9171 -4.99509 23.7991 12.803 -6.34134 22.7858 12.6797 -7.49683 21.7282 
12.5695 -8.4808 20.7046 12.5032 -9.33445 19.7641 12.6676 -11.5931 17.519 
13.1023 -1.35917 25.5275 12.5027 -10.1101 18.9218 12.5695 -10.8507 18.178 
12.81 -12.7222 16.8099 13.0957 -2.52588 25.1713 13.0243 -3.99844 24.4776 
12.9246 -5.44149 23.5661 12.8056 -6.722 22.5407 12.751 -11.9026 17.4002 
12.6832 -7.82387 21.4922 12.5854 -8.77046 20.4913 12.5445 -9.60737 19.5765 
12.6578 -11.1359 18.0406 12.5743 -10.3832 18.7602 13.1518 -1.55491 25.5626 
12.8218 -12.2266 17.2882 13.0392 -4.4663 24.2836 13.1223 -2.96902 25.0616 
12.9313 -5.85904 23.3343 12.8078 -7.08387 22.2998 12.6894 -8.14064 21.2618 
12.6109 -9.05841 20.2831 12.7435 -11.4333 17.9094 12.5993 -9.88627 19.393 
12.6556 -10.6658 18.604 13.2071 -0.501336 25.923 12.8753 -12.5761 17.1675 
13.2029 -1.87047 25.5566 13.0523 -4.91238 24.0808 13.1453 -3.4321 24.9189 
12.9359 -6.25646 23.1012 12.8223 -11.7423 17.7869 12.8097 -7.43221 22.0616 
12.7014 -8.45036 21.0365 12.6489 -9.34838 20.079 12.7393 -10.9577 18.4552 
12.6675 -10.1719 19.2156 13.2612 -0.813889 25.9339 12.8887 -12.0611 17.6767 
13.2381 -2.32792 25.4676 13.1658 -3.89389 24.7559 13.0622 -5.34245 23.8686 
12.9383 -6.63851 22.8665 12.8131 -7.77038 21.8253 12.7233 -8.75735 20.8151 
12.8193 -11.2582 18.3169 12.7003 -9.64218 19.8802 12.7441 -10.4641 19.0462 
12.9345 -12.4176 17.5305 13.3057 0.277818 26.2478 13.3123 -1.21198 25.9088 
13.2678 -2.80716 25.3461 13.1826 -4.34939 24.576 12.8921 -11.5657 18.1928 
13.0685 -5.75755 23.6494 12.9391 -7.00809 22.6301 12.8217 -8.10083 21.5916 
12.758 -9.06452 20.5978 12.8216 -10.7624 18.8875 12.764 -9.94017 19.6888 
13.3661 -0.108109 26.2532 12.9526 -11.8764 18.0882 13.3539 -1.68579 25.8361 
13.2931 -3.2861 25.2036 13.1951 -4.79424 24.3831 13.0713 -6.15981 23.4242 
12.9399 -7.36756 22.3925 12.8402 -8.42728 21.3606 12.8947 -11.0658 18.7431 
12.8055 -9.37364 20.3858 12.8343 -10.2416 19.5078 12.9865 -12.2502 17.8924 
13.4017 0.991506 26.5262 13.4209 -0.556572 26.2276 13.3895 -2.17793 25.7355 
13.3137 -3.75833 25.0442 13.2031 -5.22739 24.1799 12.9598 -11.3719 18.6185 
13.0709 -6.55016 23.1942 12.9457 -7.71891 22.1548 12.8713 -8.7523 21.1329 
12.9038 -10.5454 19.3404 12.8632 -9.68365 20.1827 13.0306 -12.0794 18.2433 
12.9256 -9.99345 19.9922 12.9142 -9.07636 20.9113 12.9611 -8.06509 21.9183 
13.0698 -6.9306 22.9598 13.4684 -1.04897 26.1696 13.4199 -2.66979 25.6151 
13.2062 -5.64883 23.9681 13.3292 -4.21981 24.8713 13.4685 0.560157 26.5344 
12.9679 -10.8495 19.1917 13.0132 -11.6727 18.5254 12.965 -9.39784 20.6996 
12.9859 -10.3015 19.8181 12.9884 -8.40774 21.6845 13.073 -7.30287 22.7227 
13.205 -6.05894 23.7486 13.0233 -11.1486 19.0707 13.3389 -4.66977 24.6872 
13.4449 -3.15389 25.4788 13.5102 -1.5519 26.0892 13.5283 0.080502 26.5152 
13.4973 1.64599 26.7744 13.0707 -11.8928 18.6088 13.0183 -9.71549 20.5019 
13.026 -8.74656 21.4567 13.0396 -10.6032 19.6685 13.0853 -7.66873 22.485 
13.2022 -6.46002 23.5218 13.3423 -5.10793 24.4927 13.4636 -3.62756 25.329 
13.5463 -2.05141 25.992 13.5819 -0.425769 26.4719 13.068 -11.4261 18.9994 
13.5707 1.19156 26.7888 13.0692 -9.07938 21.2395 13.0683 -10.0261 20.3244 
[...]
POINT_DATA 724
VECTORS velocity double
0.709728 -0.908253 -0.0686764 0.703848 -0.634184 -0.0981878 0.706471 -1.24697 -0.0377192 
0.692251 -0.413115 -0.132378 0.692594 -1.58974 -0.000711465 0.690137 -1.18284 -0.0923029 
0.676571 -0.232494 -0.173425 0.667864 -1.94398 0.0554687 0.687363 -0.949136 -0.130315 
0.676075 -1.48475 -0.0671563 0.680618 -0.754022 -0.16517 0.672833 -0.56406 -0.195156 
0.65926 -0.100033 -0.219612 0.656482 -1.79052 -0.0223004 0.632633 -2.30101 0.143112 
0.665222 -1.29402 -0.136362 0.658869 -0.46776 -0.237677 0.660818 -1.07047 -0.186844 
0.627912 -2.11024 0.046878 0.645032 -1.62484 -0.0995855 0.640314 -0.000855164 -0.271909 
0.585588 -2.67003 0.283303 0.653826 -0.854076 -0.232154 0.644108 -0.349951 -0.280421 
0.591796 -2.44737 0.159268 0.617869 -1.95964 -0.0346691 0.636793 -1.43644 -0.170339 
0.639234 -0.716391 -0.283147 0.620028 0.0685034 -0.329926 0.632886 -1.22727 -0.227704 
0.538173 -2.97928 0.457627 0.582543 -2.31316 0.0739652 0.610101 -1.78628 -0.116004 
0.626906 -0.256862 -0.32887 0.546159 -2.69927 0.262744 0.624844 -1.05785 -0.278155 
0.623559 -0.589693 -0.333005 0.604467 -1.59921 -0.191208 0.576959 -2.14221 -0.0204293 
0.482911 -3.29176 0.711458 0.59785 0.112057 -0.394985 0.607679 -0.16694 -0.382089 
0.611875 -0.923337 -0.329698 0.500608 -3.0136 0.467496 0.599959 -1.4144 -0.255276 
0.539112 -2.51453 0.136969 0.572077 -1.96266 -0.110796 0.606028 -0.461393 -0.385254 
0.591877 -1.25603 -0.312346 0.496607 -2.84583 0.332812 0.534842 -2.32879 0.0221602 
0.567892 -1.77995 -0.19368 0.59791 -0.785101 -0.380741 0.577486 0.129314 -0.455176 
0.447824 -3.32324 0.751741 0.422247 -3.59181 1.07158 0.588285 -0.232402 -0.437393 
0.563358 -1.6032 -0.266876 0.58083 -1.11202 -0.367202 0.492424 -2.6758 0.20489 
0.531429 -2.1447 -0.0818644 0.584417 -0.605748 -0.431315 0.4452 -3.17941 0.610111 
0.567622 -0.135895 -0.493427 0.556188 -1.44287 -0.331994 0.528282 -1.9625 -0.175935 
0.490099 -2.49851 0.0820837 0.569892 -0.95073 -0.420752 0.44387 -3.02089 0.463523 
0.393755 -3.55386 1.05976 0.36852 -3.82371 1.4952 0.553578 0.12746 -0.524872 
0.569056 -0.481181 -0.478302 0.524273 -1.78726 -0.259734 0.547667 -1.28466 -0.392863 
0.48833 -2.31864 -0.0324508 0.443423 -2.85005 0.316868 0.391851 -3.39231 0.865282 
0.556508 -0.813988 -0.471468 0.551271 -0.376789 -0.528335 0.32503 -3.98294 1.96491 
0.345474 -3.72945 1.40352 0.541295 -0.140892 -0.562697 0.518697 -1.62058 -0.334667 
0.486295 -2.13951 -0.137561 0.44354 -2.67231 0.176363 0.393372 -3.20982 0.661404 
0.537273 -1.13848 -0.448883 0.528348 0.10443 -0.595743 0.541311 -0.682713 -0.522558 
0.34517 -3.54265 1.12296 0.483381 -1.96502 -0.232317 0.395354 -3.02525 0.474398 
0.443552 -2.49181 0.0453073 0.511235 -1.46504 -0.401655 0.525298 -0.992816 -0.503608 
0.303208 -3.92961 1.9587 0.527379 -0.476067 -0.576369 0.28827 -4.07757 2.57482 
0.347251 -3.35552 0.871899 0.516223 -0.220984 -0.621658 0.39717 -2.84081 0.304834 
0.442751 -2.31364 -0.0738751 0.478887 -1.79944 -0.316473 0.302315 -3.79163 1.65834 
0.502732 -1.30988 -0.464216 0.504075 0.0651351 -0.659867 0.514366 -0.801876 -0.56043 
0.349768 -3.17163 0.652257 0.302638 -3.63208 1.36278 0.398134 -2.65982 0.153199 
0.44078 -2.14126 -0.18052 0.473348 -1.63694 -0.393121 0.494831 -1.13088 -0.526312 
0.502891 -0.579936 -0.616862 0.269916 -3.98567 2.40877 0.271057 -4.06643 3.16849 
0.304367 -3.46393 1.09208 0.491584 -0.329059 -0.66948 0.351525 -2.99334 0.461437 
0.398113 -2.48385 0.01806 0.43785 -1.97244 -0.277043 0.266137 -3.85362 1.99848 
0.481037 0.0144319 -0.715749 0.468108 -1.46434 -0.465684 0.486549 -0.935255 -0.586124 
0.254619 -4.00288 3.11635 0.30549 -3.29944 0.861099 0.264989 -3.70565 1.6441 
0.352572 -2.81861 0.291903 0.39726 -2.31181 -0.103392 0.434767 -1.80083 -0.366356 
0.477155 -0.7306 -0.642939 0.462516 -1.28699 -0.532263 0.244187 -3.9526 2.7061 
0.468669 -0.283904 -0.723009 0.273354 -3.92613 3.84714 0.26366 -3.56237 1.36541 
0.306495 -3.13437 0.654111 0.353082 -2.64691 0.139808 0.396106 -2.13989 -0.214602 
0.455896 -1.10999 -0.593018 0.237169 -3.85784 2.28082 0.431267 -1.62981 -0.446805 
0.46262 -0.58864 -0.693869 0.45382 -0.0593014 -0.774671 0.251634 -3.89223 3.63687 
0.263063 -3.41584 1.11776 0.307344 -2.96891 0.466707 0.231001 -3.75245 1.96876 
0.353327 -2.47668 0.00184214 0.446197 -0.958257 -0.64651 0.394438 -1.96973 -0.315081 
0.426792 -1.46303 -0.518053 0.22872 -3.9021 3.03549 0.442184 -0.417714 -0.759047 
0.297211 -3.66749 4.42893 0.263028 -3.26462 0.891349 0.226778 -3.63742 1.68598 
0.308231 -2.80351 0.296259 0.435013 -0.796091 -0.701485 0.353208 -2.30792 -0.123273 
0.391891 -1.80454 -0.403917 0.420036 -1.309 -0.580576 0.214477 -3.8454 2.67888 
0.427516 -0.141809 -0.823719 0.242368 -3.79743 3.74683 0.282264 -3.6069 4.37117 
0.224137 -3.51212 1.42172 0.263444 -3.10968 0.683264 0.309062 -2.63865 0.141311 
0.203966 -3.77228 2.36197 0.352383 -2.14252 -0.235331 0.411923 -1.15113 -0.641142 
0.387713 -1.64843 -0.481051 0.418806 -0.691281 -0.750149 0.22018 -3.79796 3.42919 
0.411718 -0.458099 -0.808386 0.344971 -3.24762 4.95131 0.222627 -3.37756 1.17445 
0.264231 -2.9528 0.492747 0.196296 -3.68444 2.06177 0.30951 -2.4755 0.00141084 
0.350329 -1.98318 -0.334042 0.382254 -1.49281 -0.552091 0.399592 -1.02069 -0.695501 
0.201751 -3.7808 3.11022 0.397468 -0.245883 -0.869837 0.259711 -3.58086 4.22205 
0.22204 -3.236 0.944144 0.190825 -3.58215 1.77558 0.265108 -2.79528 0.319217 
0.309124 -2.3151 -0.12418 0.322517 -3.2352 4.83313 0.186697 -3.745 2.79188 
0.389158 -0.8239 -0.763564 0.347227 -1.82658 -0.42258 0.373806 -1.34861 -0.616246 
0.230143 -3.62559 3.9146 0.380379 -0.5956 -0.832935 0.405667 -2.73802 5.28809 
0.187091 -3.46675 1.50364 0.222099 -3.08998 0.731803 0.17469 -3.68975 2.47653 
0.265684 -2.63804 0.161829 0.307915 -2.15649 -0.237492 0.342186 -1.67578 -0.501489 
0.204213 -3.6556 3.58667 0.365896 -1.16926 -0.688689 0.291277 -3.28005 4.63719 
0.367315 -0.357566 -0.905634 0.184651 -3.34142 1.24945 0.16537 -3.615 2.16669 
0.222477 -2.94099 0.536999 0.357485 -0.96246 -0.765957 0.265772 -2.48049 0.018328 
0.182325 -3.66275 3.25229 0.375111 -2.7864 5.15568 0.305544 -2.00099 -0.338708 
0.337117 -1.50527 -0.583351 0.25413 -3.3786 4.34757 0.348767 -0.726705 -0.847206 
0.471767 -2.17229 5.44417 0.15827 -3.52341 1.87207 0.183224 -3.20852 1.01315 
0.164096 -3.64557 2.91027 0.222897 -2.7893 0.357959 0.21999 -3.46285 4.02551 
0.265232 -2.32298 -0.112118 0.331386 -1.31345 -0.668548 0.303086 -1.83527 -0.436749 
0.334588 -2.90691 4.96154 0.33653 -0.477046 -0.931092 0.149482 -3.60328 2.58183 
0.15298 -3.41805 1.59435 0.189351 -3.52323 3.6724 0.182511 -3.06934 0.793723 
0.324604 -1.09787 -0.757505 0.223208 -2.63507 0.193214 0.288805 -3.06986 4.69743 
0.264721 -2.15945 -0.234934 0.433802 -2.28485 5.33168 0.300119 -1.65439 -0.534469 
0.316314 -0.858838 -0.850199 0.164329 -3.54685 3.33014 0.137836 -3.53988 2.2691 
0.242589 -3.23072 4.36349 0.149203 -3.30131 1.33299 0.536771 -1.58337 5.4364 
0.182335 -2.92485 0.589984 0.223777 -2.47524 0.0385362 0.296093 -1.45461 -0.63391 
0.382884 -2.49417 5.1671 0.264097 -1.98656 -0.352149 0.304878 -0.603969 -0.945235 
0.318439 -2.78312 4.89337 0.205617 -3.33173 4.04067 0.143786 -3.54051 2.99978 
0.128641 -3.45867 1.97065 0.290462 -1.23514 -0.735398 0.146659 -3.17491 1.08739 
0.182757 -2.7738 0.398493 0.224585 -2.30858 -0.10679 0.262703 -1.79965 -0.467149 
0.489658 -1.77885 5.3656 0.282644 -0.995729 -0.839867 0.405293 -2.23329 5.2073 
0.270929 -2.95899 4.63006 0.174754 -3.39313 3.72268 0.126797 -3.50924 2.67919 
0.121504 -3.36198 1.68563 0.145319 -3.03969 0.855536 0.259835 -1.59627 -0.581826 
0.595014 -1.00931 5.29553 0.183856 -2.61551 0.218079 0.225206 -2.13258 -0.244509 
0.272234 -0.73736 -0.946845 0.488328 -1.65503 5.30593 0.353188 -2.4538 5.03557 
0.23064 -3.08772 4.36027 0.148402 -3.42348 3.4055 0.254961 -1.37579 -0.696991 
0.112779 -3.4564 2.36687 0.116256 -3.25216 1.41381 0.145128 -2.89583 0.63631 
0.22477 -1.94346 -0.377927 0.185311 -2.44968 0.0490946 0.570694 -1.06176 5.25295 
0.247499 -1.13803 -0.813933 0.306913 -2.63533 4.84225 0.442569 -1.8556 5.22726 
0.19501 -3.18367 4.07829 0.125734 -3.4269 3.08812 0.101361 -3.38437 2.06286 
0.112807 -3.13074 1.1547 0.222547 -1.73919 -0.509231 0.145925 -2.74328 0.429614 
0.186469 -2.27404 -0.110386 0.649548 -0.403751 5.0211 0.238675 -0.87524 -0.934607 
0.536096 -1.18382 5.21593 0.264109 -2.79019 4.62446 0.395613 -2.06435 5.12151 
0.163216 -3.25039 3.78451 0.218009 -1.51966 -0.639381 0.106265 -3.4059 2.77091 
0.0924097 -3.29593 1.76884 0.111058 -2.99866 0.908388 0.186431 -2.08526 -0.263809 
0.147241 -2.5818 0.235882 0.618182 -0.531573 5.0269 0.210607 -1.28545 -0.769656 
0.49066 -1.40138 5.18577 0.34931 -2.26274 4.98515 0.224365 -2.9193 4.38309 
0.134835 -3.28971 3.48049 0.0897873 -3.36288 2.45574 0.0858503 -3.19331 1.48566 
0.184369 -1.88184 -0.413424 0.110641 -2.85593 0.675432 0.148284 -2.40928 0.0531068 
0.204507 -1.01484 -0.907507 0.689951 0.126794 4.67805 0.580004 -0.712826 5.04288 
0.443303 -1.63067 5.13179 0.30432 -2.44445 4.81789 0.179706 -1.66474 -0.559889 
0.187627 -3.02137 4.12075 0.109645 -3.30303 3.16862 0.0762462 -3.30056 2.14595 
0.0814974 -3.07771 1.21466 0.148044 -2.22284 -0.122144 0.111 -2.70223 0.456201 
0.656721 -0.0436128 4.73491 0.171765 -1.4363 -0.703994 0.535767 -0.945064 5.06035 
0.39583 -1.85262 5.04703 0.261228 -2.60425 4.62135 0.153821 -3.09654 3.83996 
0.0875936 -3.29229 2.85196 0.0656088 -3.22153 1.84403 0.145673 -2.02175 -0.29177 
0.0789315 -2.94903 0.956429 0.111207 -2.5358 0.249037 0.170509 -1.15194 -0.865417 
0.717746 0.588161 4.29776 0.618453 -0.255477 4.8009 0.489281 -1.18805 5.0559 
0.349006 -2.05976 4.92997 0.220312 -2.73946 4.39768 0.140355 -1.80768 -0.456288 
0.122988 -3.14514 3.54412 0.0687954 -3.26016 2.53514 0.0576818 -3.127 1.55202 
0.110179 -2.35446 0.0509596 0.077432 -2.80694 0.712137 0.13784 -1.28168 -0.809736 
0.0759911 -2.65012 0.480681 0.0519522 -3.0168 1.27171 0.0532635 -3.20892 2.22173 
0.0952328 -3.16876 3.23678 0.576021 -0.498439 4.86308 0.442019 -1.4259 5.02152 
0.181746 -2.84871 4.14945 0.303423 -2.24685 4.78114 0.685743 0.39805 4.39837 
0.10698 -2.15889 -0.138852 0.130933 -1.58641 -0.614392 0.0476423 -2.89049 1.00464 
0.073508 -2.47756 0.260232 0.0408488 -3.13974 1.91499 0.0707867 -3.16951 2.92273 
0.145762 -2.93196 3.88005 0.100523 -1.95281 -0.319417 0.259351 -2.41088 4.60168 
0.394826 -1.65067 4.95477 0.531373 -0.748813 4.9037 0.649556 0.17341 4.50708 
0.734323 0.985213 3.90144 0.104373 -1.41247 -0.735528 0.0437076 -2.74718 0.750458 
0.0310393 -3.05226 1.61754 0.0688264 -2.29146 0.051677 0.0498148 -3.14935 2.60685 
0.112527 -2.99037 3.59247 0.21707 -2.55041 4.39383 0.348159 -1.85765 4.85518 
0.485592 -0.994203 4.91527 0.609892 -0.0726092 4.60822 0.0889883 -1.74829 -0.484221 
0.705458 0.79253 4.03407 0.0230015 -2.94572 1.33155 0.0389623 -2.58716 0.509464 
0.0322361 -3.10898 2.29367 0.0824599 -3.02524 3.29207 0.176648 -2.6662 4.15901 
0.302448 -2.04322 4.72368 0.0606248 -2.09741 -0.142117 0.439383 -1.22764 4.8952 
0.568035 -0.322345 4.6869 0.672796 0.567669 4.17661 0.74103 1.32366 3.50291 
0.0678322 -1.55298 -0.631508 0.0156899 -2.81974 1.05804 0.0175618 -3.04771 1.98621 
0.0321812 -2.4131 0.283231 0.0558658 -3.03779 2.98447 0.138536 -2.75785 3.90086 
0.257447 -2.20901 4.56022 0.393425 -1.44372 4.84322 0.524808 -0.566491 4.73732 
0.636706 0.326312 4.30911 0.0481151 -1.89681 -0.324739 0.716524 1.14462 3.65033 
0.00498921 -2.96446 1.68698 0.00796273 -2.67515 0.798262 0.0327516 -3.02831 2.6744 
0.103301 -2.82605 3.6247 0.21363 -2.35321 4.36644 0.0223933 -2.22703 0.0700784 
0.346834 -1.64747 4.75893 0.598227 0.0838748 4.4178 0.481621 -0.793697 4.7563 
0.688348 0.926341 3.82057 0.0294894 -1.69758 -0.491384 0.739029 1.61035 3.10933 
-0.00644933 -2.85908 1.39822 0.012701 -2.99564 2.36525 -0.00129652 -2.5134 0.552011 
0.0713531 -2.87143 3.33594 0.171615 -2.475 4.1457 0.300262 -1.83393 4.64166 
0.436376 -1.01955 4.74847 0.655758 0.689956 3.98131 0.56027 -0.134607 4.49017 
0.00876781 -2.03305 -0.129394 0.719491 1.46385 3.2449 -0.00500634 -2.93838 2.05986 
-0.01783 -2.73216 1.12121 0.0427599 -2.89337 3.03919 0.132027 -2.57426 3.9025 
0.254224 -2.00166 4.4925 -0.0130605 -2.33748 0.319939 0.389893 -1.23543 4.70922 
0.518747 -0.366637 4.548 0.624878 0.499536 4.08302 0.695612 1.23466 3.46383 
-0.00923399 -1.84009 -0.309012 -0.0211986 -2.8563 1.76122 0.0171761 -2.89021 2.73773 
0.729108 1.85277 2.72235 -0.0301671 -2.58551 0.856968 0.0953973 -2.65054 3.64209 
0.209472 -2.14899 4.31422 0.342782 -1.43727 4.63728 0.474844 -0.597408 4.58006 
0.588754 0.274131 4.19287 0.673246 1.09012 3.56718 -0.0282213 -2.15421 0.107502 
0.708001 1.62848 2.9757 -0.0368476 -2.74999 1.4718 -0.00596478 -2.86053 2.43447 
0.0617604 -2.7026 3.36795 0.166649 -2.2753 4.11045 -0.0443723 -2.42308 0.608968 
0.295766 -1.62247 4.53335 0.429154 -0.821029 4.58221 0.549162 0.0405022 4.28535 
0.643582 0.876715 3.72091 -0.0467754 -1.97359 -0.0783952 -0.0273215 -2.80367 2.13362 
0.682642 1.42095 3.17172 -0.0528132 -2.62171 1.19414 0.0308901 -2.7284 3.08323 
0.126235 -2.37901 3.88505 0.714747 2.03009 2.39615 0.24954 -1.78973 4.3995 
0.60917 0.645775 3.86595 0.382546 -1.03201 4.55243 0.506796 -0.192725 4.35283 
-0.0615078 -2.25406 0.38948 -0.0476658 -2.72039 1.83855 0.698555 1.83803 2.6353 
0.00237096 -2.72616 2.79109 0.652904 1.18984 3.36877 0.0882777 -2.45832 3.64066 
-0.0698543 -2.47591 0.934154 0.204654 -1.93763 4.2381 0.571214 0.410798 3.98957 
0.335832 -1.22766 4.4915 0.462718 -0.417198 4.39022 -0.0812092 -2.08976 0.205719 
0.676933 1.63299 2.85739 -0.0242283 -2.6951 2.49618 -0.0676597 -2.61323 1.55344 
0.0526323 -2.5109 3.3798 0.619821 0.958461 3.54009 0.161347 -2.0647 4.0509 
0.531089 0.183554 4.08339 0.289434 -1.40763 4.40099 0.417871 -0.628483 4.39666 
0.695939 2.17802 2.0855 -0.0892568 -2.32372 0.716881 0.650777 1.4231 3.05577 
-0.0494198 -2.63598 2.20337 0.0190936 -2.53439 3.10599 0.683571 2.00513 2.32306 
0.584533 0.737801 3.67779 0.119765 -2.16794 3.83965 -0.0878196 -2.4867 1.28593 
0.243447 -1.57208 4.2816 0.489865 -0.0304427 4.14581 0.37275 -0.826078 4.37377 
-0.110129 -2.17779 0.546133 0.666128 1.81575 2.55237 -0.0736009 -2.55188 1.91752 
0.621589 1.22201 3.2198 -0.0124707 -2.52777 2.82494 0.0797975 -2.24453 3.60574 
0.198189 -1.71789 4.13374 0.548047 0.532825 3.78119 0.326961 -1.01405 4.32309 
0.448174 -0.230708 4.1792 0.673715 2.29963 1.7943 -0.109406 -2.35125 1.08438 
0.643523 1.63448 2.73859 -0.0421804 -2.49238 2.54356 0.041389 -2.2915 3.35189 
-0.0970918 -2.44674 1.644 0.590602 1.03586 3.3482 0.664524 2.14994 2.01916 
0.15378 -1.84139 3.95763 0.280773 -1.1897 4.2436 0.511279 0.344786 3.85357 
0.405048 -0.427288 4.18929 0.651441 1.9821 2.24576 -0.130637 -2.22394 0.94277 
0.618007 1.46859 2.88352 -0.0701032 -2.43273 2.26796 0.0045302 -2.30734 3.08247 
0.110234 -1.93933 3.75387 0.234356 -1.34979 4.13415 0.55958 0.873785 3.43807 
0.360594 -0.618047 4.17405 0.472502 0.153516 3.91044 0.648641 2.4002 1.52002 
-0.119966 -2.32168 1.48203 0.631687 1.82899 2.41471 -0.0965501 -2.35576 1.99489 
0.067577 -2.00902 3.52395 -0.0309624 -2.29277 2.80111 0.187867 -1.49007 3.99352 
0.592616 1.34086 2.97015 0.314875 -0.800434 4.1312 0.431834 -0.0378188 3.94802 
0.526129 0.699986 3.52438 0.641347 2.28241 1.70941 0.633548 2.1258 1.9519 
-0.139153 -2.20965 1.39289 0.611037 1.74018 2.47835 0.0258573 -2.0492 3.27029 
0.141214 -1.60809 3.8207 0.26818 -0.969951 4.05832 -0.0660073 -2.25434 2.50035 
0.389069 -0.228122 3.96373 0.564625 1.19137 3.07018 0.49054 0.521099 3.59894 
0.62092 2.4838 1.25914 -0.108464 -2.2357 2.02004 0.616602 2.07304 1.98241 
0.0942024 -1.7026 3.61441 0.220445 -1.12414 3.95335 -0.0154535 -2.06311 2.99109 
0.344575 -0.411998 3.9534 0.588114 1.61606 2.58191 0.452215 0.335007 3.66085 
0.534656 1.03532 3.16399 0.616428 2.33818 1.52276 -0.133316 -2.12872 1.81205 
-0.0605101 -2.07674 2.64312 0.171515 -1.26169 3.81421 0.597965 1.96978 2.08734 
0.0461139 -1.77543 3.37007 0.298397 -0.586761 3.91449 0.411625 0.149772 3.70215 
0.501614 0.863245 3.25799 0.563705 1.48994 2.67737 0.595065 2.54409 1.04404 
-0.0951716 -2.06959 2.33551 0.598422 2.25039 1.62084 0.120983 -1.38386 3.63786 
-0.00588731 -1.83903 3.06628 0.25052 -0.750743 3.84492 0.36878 -0.032715 3.72032 
0.465913 0.686307 3.33859 0.578311 1.87759 2.16714 0.53623 1.33786 2.79092 
0.591772 2.43787 1.24961 0.0680557 -1.49619 3.41836 0.200923 -0.903273 3.74273 
-0.111755 -1.95998 2.23724 0.580602 2.19681 1.65648 0.323989 -0.207699 3.71149 
0.427342 0.505449 3.40281 0.506066 1.17801 2.89711 -0.0523382 -1.84449 2.75464 
0.556212 1.74789 2.2907 0.567111 2.59468 0.835708 0.571674 2.44053 1.17703 
0.0173865 -1.57621 3.1679 0.149715 -1.04623 3.60712 0.277428 -0.374093 3.67462 
0.386381 0.328008 3.44372 0.472479 1.00567 2.9977 0.562923 2.08606 1.78738 
0.531765 1.61184 2.40832 0.0994904 -1.16681 3.44034 -0.0805228 -1.74178 2.55779 
0.229447 -0.531585 3.6095 0.557757 2.34607 1.31384 0.343413 0.158007 3.45825 
0.435958 0.832092 3.07925 0.503666 1.45327 2.53663 -0.019134 -1.55673 2.95076 
0.543465 1.97941 1.89905 0.542615 2.62905 0.67037 0.0529553 -1.2523 3.25128 
0.544971 2.52611 0.911516 0.181435 -0.674848 3.51652 0.298381 -0.00748009 3.4481 
0.472219 1.28975 2.65018 0.52095 1.8367 2.04955 0.397168 0.665429 3.13458 
0.541848 2.27695 1.39092 0.134955 -0.796386 3.39721 -0.0358353 -1.43397 2.82194 
0.251795 -0.166158 3.41152 0.525175 2.14828 1.56534 0.494886 1.68766 2.1871 
0.438261 1.13188 2.73789 0.355976 0.501713 3.16712 0.0260671 -1.1916 3.08649 
0.527369 2.50923 0.889316 0.515892 2.65713 0.507199 0.0912017 -0.892601 3.25662 
0.204037 -0.317029 3.34747 0.518312 2.38848 1.10668 0.504462 2.01704 1.71895 
0.466276 1.54672 2.2946 0.312249 0.335859 3.18 0.401639 0.976791 2.803 
0.155255 -0.457216 3.25242 0.0205749 -1.03346 2.98242 0.493007 2.67406 0.381459 
0.502143 2.56206 0.689111 0.50267 2.27515 1.27203 0.265959 0.168562 3.16976 
0.481252 1.90227 1.82778 0.434578 1.4008 2.38867 0.362452 0.819289 2.85056 
0.0896043 -0.71595 3.13913 0.492449 2.46413 0.871402 0.215498 -0.0118182 3.13698 
0.455305 1.77343 1.93972 0.483729 2.19426 1.35779 0.321294 0.657328 2.88287 
0.399413 1.25111 2.46476 0.15401 -0.253818 3.0858 0.469302 2.68478 0.265689 
0.476601 2.59774 0.518956 0.0793435 -0.59059 3.0027 0.277727 0.486633 2.90028 
0.425137 1.62558 2.05368 0.463528 2.09152 1.46933 0.474809 2.4223 0.900858 
0.362202 1.10383 2.51794 0.23009 0.285102 2.91499 0.439609 1.95321 1.61498 
0.459499 2.35092 0.992105 0.391478 1.48741 2.12852 0.458261 2.58275 0.491881 
0.323043 0.943651 2.56543 0.18618 0.111579 2.89746 0.129818 -0.178012 2.90942 
0.445173 2.68739 0.166648 0.44239 2.22587 1.1668 0.411643 1.81629 1.72924 
0.280447 0.760802 2.60968 0.355455 1.3498 2.17948 0.443127 2.5505 0.514321 
0.234555 0.557411 2.64453 0.420759 2.1111 1.28991 0.434878 2.4333 0.741014 
0.424012 2.6806 0.100259 0.37904 1.68739 1.79893 0.181813 0.291416 2.69378 
0.31729 1.18133 2.24682 0.395762 1.98257 1.40797 0.417636 2.34881 0.844954 
0.418658 2.57353 0.36358 0.271498 0.95486 2.33646 0.343401 1.55857 1.83963 
0.405724 2.66441 0.0658438 0.224284 0.72319 2.40223 0.398928 2.2494 0.957225 
0.404064 2.51792 0.431461 0.365171 1.86918 1.46204 0.300168 1.30265 2.00786 
0.377705 2.12628 1.08639 0.386562 2.63124 0.0647957 0.388771 2.45225 0.506354 
0.258236 1.11773 2.059 0.317595 1.59361 1.66876 0.336298 1.83918 1.37503 
0.374478 2.36116 0.626921 0.348728 2.06122 1.06127 0.370422 2.58071 0.11146 
0.284262 1.46643 1.69203 0.357866 2.25283 0.755862 0.356331 2.50619 0.213434 
0.304696 1.78126 1.30502 0.343948 2.39887 0.381843 0.319404 2.0322 0.955024 
0.331643 2.23631 0.642886 
