# vtk DataFile Version 3.0
vtk output
ASCII
DATASET POLYDATA
POINTS 724 float
10.7429 -11.0262 12.9573 10.8015 -11.5411 12.7547 10.7136 -10.442 13.2969 
10.8823 -11.9944 12.6633 10.719 -9.89389 13.7108 10.8094 -10.6352 13.4502 
10.9878 -12.4042 12.6637 10.7523 -9.35892 14.1923 10.867 -11.0713 13.2905 
10.8121 -10.1494 13.8335 10.9356 -11.458 13.1976 11.0046 -11.8406 13.1086 
11.0998 -12.7374 12.7403 10.8247 -9.67102 14.2326 10.8082 -8.83927 14.7228 
10.9052 -10.5423 13.8314 11.0998 -12.0885 13.1926 10.9808 -10.9742 13.7202 
10.8588 -9.19017 14.6869 10.908 -10.0122 14.2653 11.2213 -13.0198 12.8783 
10.8863 -8.30885 15.3158 11.0668 -11.4071 13.6295 11.2012 -12.3795 13.2592 
10.906 -8.68764 15.1774 10.9265 -9.49171 14.7209 10.9924 -10.3908 14.2462 
11.1753 -11.7313 13.6887 11.349 -13.2529 13.0691 11.0703 -10.7982 14.1579 
10.9665 -7.85642 15.8493 10.9614 -8.95151 15.2161 10.9996 -9.83426 14.7194 
11.3131 -12.637 13.3806 10.9899 -8.34136 15.6894 11.1591 -11.152 14.1329 
11.2879 -12.0413 13.7654 11.0751 -10.2013 14.685 11.0211 -9.2785 15.2053 
11.0626 -7.37413 16.433 11.4839 -13.4438 13.3131 11.4321 -12.8952 13.5271 
11.2635 -11.4629 14.1833 11.0575 -7.85771 16.1949 11.1525 -10.5667 14.6337 
11.0487 -8.69201 15.6956 11.0872 -9.62466 15.1819 11.4091 -12.3622 13.8578 
11.2428 -10.9008 14.6292 11.0985 -8.17191 16.1826 11.1097 -9.04573 15.6754 
11.1576 -9.97951 15.1464 11.3749 -11.7866 14.2374 11.6024 -13.5718 13.5593 
11.1447 -7.35528 16.7517 11.1733 -6.85589 17.0642 11.5371 -12.8661 13.8432 
11.2345 -10.3303 15.1123 11.3461 -11.223 14.6605 11.1497 -8.49632 16.1726 
11.1743 -9.399 15.6455 11.4921 -12.1856 14.2456 11.1736 -7.63051 16.7335 
11.6559 -13.134 13.9931 11.324 -10.6651 15.1081 11.2431 -9.75222 15.6105 
11.2056 -8.83566 16.1438 11.4567 -11.5803 14.6736 11.2086 -7.93398 16.7022 
11.2483 -6.94444 17.3077 11.281 -6.36769 17.6532 11.7352 -13.6752 13.8659 
11.5998 -12.4863 14.3146 11.319 -10.0996 15.5825 11.4251 -11.0063 15.114 
11.2666 -9.18196 16.1078 11.2521 -8.26259 16.662 11.2775 -7.27174 17.2716 
11.5685 -11.8992 14.7241 11.7109 -12.7562 14.4253 11.3827 -5.90482 18.1995 
11.3502 -6.56653 17.8289 11.7922 -13.235 14.3129 11.4059 -10.4418 15.5692 
11.3327 -9.52996 16.0719 11.3032 -8.60587 16.6158 11.3102 -7.63584 17.2048 
11.5334 -11.3341 15.1408 11.8681 -13.7385 14.2021 11.6847 -12.2134 14.7933 
11.3785 -6.98089 17.7516 11.4065 -9.87543 16.0427 11.352 -8.00231 17.1389 
11.3606 -8.95575 16.5693 11.5042 -10.7749 15.5754 11.6494 -11.6678 15.1791 
11.4476 -5.99213 18.3989 11.8094 -12.6645 14.7816 11.4992 -5.36615 18.8171 
11.4125 -7.38247 17.6677 11.909 -13.1864 14.6801 11.4012 -8.36694 17.0775 
11.4244 -9.30412 16.5292 11.4908 -10.214 16.0284 11.462 -6.36909 18.2991 
11.6131 -11.116 15.5875 11.9896 -13.7622 14.5323 11.7756 -12.0861 15.1699 
11.4544 -7.76806 17.5914 11.486 -6.76858 18.2027 11.4565 -8.72422 17.0254 
11.4967 -9.64751 16.4994 11.5869 -10.5565 16.0218 11.7335 -11.5059 15.5748 
11.9031 -12.5612 15.1314 11.5554 -5.61731 18.916 11.6044 -4.86869 19.3678 
11.5195 -7.16571 18.1113 12.0138 -13.0794 15.0504 11.5028 -8.13551 17.5295 
11.519 -9.07391 16.9834 11.579 -9.99149 16.4771 11.568 -6.09125 18.7673 
12.1007 -13.7564 14.8482 11.6949 -10.9246 16.0033 11.8591 -11.9288 15.5465 
11.6622 -4.99342 19.5141 11.562 -7.53756 18.0424 11.592 -6.53369 18.6445 
11.5566 -8.49179 17.4781 11.59 -9.42037 16.9492 11.6723 -10.3478 16.4521 
11.9827 -12.3677 15.5115 11.812 -11.3079 15.9792 11.6634 -5.4284 19.3478 
12.1315 -13.2492 15.2599 11.723 -4.29004 19.9848 11.6298 -6.91779 18.567 
11.6089 -7.89809 17.9833 11.6175 -8.84184 17.4341 11.6701 -9.77149 16.9161 
11.9318 -11.6932 15.9567 11.6742 -5.90005 19.1852 11.7767 -10.7111 16.4269 
12.0976 -12.6968 15.563 12.2261 -13.7197 15.2209 11.7706 -4.56785 20.0303 
11.6725 -7.28453 18.5013 11.6611 -8.25167 17.9316 11.706 -6.28267 19.1039 
11.6869 -9.19125 17.3937 12.0483 -12.0349 15.9702 11.7604 -10.1256 16.8857 
11.8905 -11.0739 16.4069 11.761 -5.19422 19.7514 12.2349 -13.0948 15.6484 
11.832 -3.73982 20.5481 11.7186 -7.6432 18.4419 11.7448 -6.6502 19.0334 
11.7203 -8.60203 17.8839 12.167 -12.3969 15.9854 11.7649 -9.54102 17.3566 
11.862 -10.4785 16.8617 12.0091 -11.4189 16.4077 11.788 -5.60144 19.6585 
12.3409 -13.659 15.5776 11.8492 -4.53247 20.2903 11.8954 -3.8634 20.6959 
11.7869 -7.01254 18.9668 11.7692 -7.99728 18.3869 11.7877 -8.95096 17.8397 
11.823 -5.97837 19.5826 11.853 -9.88968 17.3255 12.1313 -11.773 16.4132 
11.9748 -10.8234 16.8519 12.2799 -12.6586 16.0818 11.8766 -4.90395 20.2212 
12.3687 -13.1246 15.993 11.9494 -3.12377 21.1527 11.8317 -7.37125 18.904 
11.8267 -8.34852 18.3356 11.8623 -6.34843 19.5089 11.8641 -9.2981 17.8008 
11.9532 -10.2345 17.3053 12.0962 -11.173 16.8492 12.2531 -12.0811 16.4675 
11.9072 -5.27455 20.1455 12.4642 -13.5658 15.9782 11.9564 -4.09438 20.7892 
11.8811 -7.72759 18.8448 11.9038 -6.71543 19.4372 11.8925 -8.69745 18.2888 
11.9509 -9.64349 17.7704 12.0115 -3.33023 21.2555 11.943 -5.64759 20.0667 
12.3787 -12.5049 16.4599 12.0662 -10.5824 17.2928 12.2215 -11.5054 16.8734 
11.9895 -4.48133 20.7246 12.4808 -12.9687 16.4046 12.0592 -2.53076 21.7116 
11.9479 -7.0808 19.3682 11.9371 -8.08112 18.79 11.9821 -6.02328 19.9865 
11.9675 -9.04461 18.2486 12.0502 -9.99144 17.7474 12.1891 -10.9259 17.296 
12.0234 -4.87796 20.6398 12.3518 -11.9004 16.8701 12.0641 -3.64043 21.2842 
12.5781 -13.4516 16.3712 11.9965 -7.44245 19.3046 12.0233 -6.40167 19.9063 
12.0011 -8.43256 18.7405 12.4774 -12.3391 16.8479 12.0532 -9.39371 18.2151 
12.0614 -5.27571 20.5503 12.1209 -2.80167 21.7798 12.163 -10.3408 17.7343 
12.3191 -11.3065 17.2865 12.1004 -4.05084 21.2116 12.5864 -12.8177 16.7997 
12.1652 -1.9544 22.2367 12.0674 -6.7754 19.8322 12.0511 -7.80119 19.246 
12.1017 -5.67997 20.456 12.0744 -8.78465 18.6967 12.1377 -4.47599 21.1165 
12.1517 -9.74672 18.1884 12.4498 -11.7226 17.2661 12.2873 -10.7137 17.7155 
12.1702 -3.17501 21.7657 12.6846 -13.3174 16.7627 12.1445 -6.07353 20.3704 
12.1154 -7.14456 19.7643 12.1781 -4.91815 21.0072 12.1131 -8.15905 19.1925 
12.5753 -12.175 17.2341 12.1589 -9.14053 18.6583 12.2093 -3.62494 21.6764 
12.264 -10.1162 18.1596 12.2281 -2.28151 22.2773 12.4173 -11.114 17.6901 
12.6866 -12.6586 17.1913 12.2224 -5.33755 20.9124 12.1895 -6.45747 20.2933 
12.2491 -4.12607 21.547 12.1686 -7.51128 19.7016 12.2705 -1.39495 22.7346 
12.1847 -8.51905 19.1435 12.2562 -9.50882 18.6195 12.547 -11.5438 17.6588 
12.275 -2.72875 22.2193 12.3874 -10.5061 18.1266 12.7846 -13.1638 17.1554 
12.3134 -3.3221 22.06 12.2964 -4.574 21.4477 12.268 -5.73953 20.8282 
12.2374 -6.83596 20.2222 12.6711 -12.0018 17.6233 12.2286 -7.87796 19.6432 
12.2675 -8.88758 19.0956 12.3673 -9.89287 18.5785 12.5158 -10.9193 18.0906 
12.3356 -1.80312 22.7395 12.7822 -12.4847 17.5863 12.3702 -2.53599 22.528 
12.3647 -3.79306 21.9658 12.3452 -4.99366 21.3618 12.3143 -6.13133 20.7512 
12.2891 -7.21233 20.1558 12.2979 -8.24935 19.5867 12.6431 -11.356 18.0541 
12.3758 -0.862134 23.2019 12.3633 -9.26885 19.0462 12.4889 -10.2947 18.5354 
12.8783 -12.992 17.5502 12.4255 -1.8164 22.9476 12.4279 -3.00394 22.4589 
12.4183 -4.22472 21.8862 12.3935 -5.3986 21.2825 12.7645 -11.815 18.0191 
12.362 -6.51852 20.6786 12.347 -7.58964 20.092 12.3787 -8.62953 19.53 
12.6146 -10.7157 18.4935 12.4726 -9.66398 18.9959 12.455 -1.0779 23.3033 
12.8739 -12.2936 17.9889 12.4866 -3.43708 22.3947 12.4903 -2.21888 22.9285 
12.4704 -4.6402 21.81 12.4409 -5.79625 21.2072 12.4121 -6.90454 20.609 
12.4139 -7.97166 20.029 12.7384 -11.1557 18.4557 12.4727 -9.02121 19.4726 
12.5917 -10.0742 18.9468 12.4972 -0.292223 23.6989 12.9657 -12.8044 17.9462 
12.5409 -1.38908 23.3714 12.5436 -3.85816 22.3278 12.5526 -2.63618 22.8851 
12.5205 -5.04732 21.7355 12.8561 -11.6128 18.4243 12.4882 -6.19113 21.1345 
12.4675 -7.29149 20.541 12.4927 -8.36187 19.9655 12.7136 -10.5003 18.902 
12.5797 -9.42511 19.4161 12.5804 -0.593282 23.7632 12.9621 -12.084 18.4029 
12.6118 -1.79878 23.3563 12.6136 -3.05573 22.8313 12.5978 -4.27303 22.2582 
12.5686 -5.45056 21.6626 12.5367 -6.58569 21.063 12.5322 -7.68296 20.4732 
12.8328 -10.9418 18.8653 12.5845 -8.76224 19.9023 12.6952 -9.84185 19.3631 
13.0458 -12.6038 18.3405 12.6187 0.230141 24.1562 12.663 -0.958907 23.7928 
12.6784 -2.22393 23.3167 12.6722 -3.47528 22.7704 12.9457 -11.3955 18.8402 
12.6491 -4.68388 22.1882 12.6153 -5.85242 21.5906 12.5899 -6.98138 20.9923 
12.609 -8.08157 20.4052 12.8122 -10.2719 19.3175 12.6883 -9.1732 19.8415 
12.7055 -0.124875 24.1972 13.0469 -11.8555 18.8318 12.737 -1.37755 23.776 
12.7421 -2.65122 23.2665 12.7276 -3.89284 22.706 12.6976 -5.09306 22.1182 
12.6622 -6.25455 21.5189 12.6526 -7.38107 20.9213 12.9258 -10.714 19.2835 
12.6982 -8.48932 20.3379 12.7986 -9.59453 19.7863 13.1172 -12.3953 18.7257 
12.7426 0.715272 24.5878 12.7882 -0.525505 24.2069 12.8068 -1.80948 23.7397 
12.8026 -3.07755 23.2101 12.7798 -4.30877 22.6403 13.0324 -11.1641 19.2667 
12.7436 -5.50142 22.0482 12.7137 -6.65794 21.447 12.7272 -7.78707 20.8503 
12.9089 -10.026 19.7413 12.7973 -8.90524 20.2745 13.1786 -12.186 19.0914 
12.901 -9.32878 20.2189 12.813 -8.20013 20.7812 12.7744 -7.06483 21.3748 
12.7891 -5.91035 21.9774 12.8649 -0.956752 24.1874 12.8731 -2.24313 23.6942 
12.8282 -4.72377 22.574 12.8597 -3.50123 23.1509 12.8325 0.32552 24.6137 
13.0148 -10.4647 19.7116 13.1283 -11.6108 19.278 12.9064 -8.61882 20.7172 
13.0033 -9.75864 20.1759 12.8465 -7.4766 21.3027 12.8389 -6.3208 21.9059 
12.8732 -5.1381 22.507 13.1128 -10.9029 19.7058 12.9125 -3.92293 23.0907 
12.936 -2.67441 23.6443 12.9379 -1.39566 24.1544 12.9164 -0.0983462 24.6119 
12.8704 1.16748 25.0023 13.2351 -11.9614 19.4641 13.0024 -9.04238 20.6627 
12.9282 -7.89331 21.2333 13.0998 -10.1889 20.153 12.8975 -6.73395 21.8338 
12.9173 -5.55365 22.4384 12.9603 -4.34291 23.0297 12.9943 -3.1027 23.5923 
13.0073 -1.83364 24.1156 12.9958 -0.540467 24.5908 13.2009 -11.3181 19.7437 
12.9631 0.758588 25.0193 13.0153 -8.31325 21.1705 13.0955 -9.46738 20.6239 
12.9666 -7.15001 21.7628 12.9654 -5.97042 22.3688 13.0038 -4.76391 22.9662 
[...]
POINT_DATA 724
VECTORS velocity double
1.07103 -0.450487 1.3335 0.938396 -0.0461494 1.21795 1.21428 -0.926816 1.44587 
0.814967 0.29668 1.09596 1.34168 -1.38386 1.5406 1.1179 -0.738586 1.29422 
0.695569 0.596699 0.961969 1.45848 -1.82785 1.62987 0.996544 -0.377776 1.17446 
1.22168 -1.13137 1.35908 0.885684 -0.0658768 1.05985 0.781038 0.228943 0.95625 
0.588806 0.836898 0.826173 1.32548 -1.5229 1.43632 1.56308 -2.24192 1.71921 
1.07634 -0.772813 1.16791 0.68869 0.429723 0.829887 0.944908 -0.406161 1.02149 
1.42322 -1.90663 1.51516 1.18429 -1.19452 1.2354 0.487043 1.04081 0.681682 
1.65897 -2.62845 1.81836 0.816028 -0.0514332 0.880911 0.588874 0.653672 0.69998 
1.52482 -2.29144 1.61818 1.29036 -1.60733 1.31695 1.04325 -0.845837 1.04735 
0.697162 0.221257 0.723788 0.388967 1.21377 0.527744 0.912317 -0.492738 0.891319 
1.73165 -2.91541 1.9139 1.40044 -2.02282 1.42357 1.15102 -1.27858 1.11756 
0.489767 0.853349 0.558319 1.55141 -2.49229 1.62518 0.792082 -0.188059 0.742141 
0.582361 0.475524 0.569378 1.01341 -0.938927 0.930313 1.26242 -1.70551 1.21606 
1.79994 -3.16612 2.0299 0.290506 1.36449 0.358721 0.386716 1.05059 0.406283 
0.673545 0.0829358 0.582427 1.63865 -2.79514 1.753 0.885378 -0.61238 0.764591 
1.39177 -2.14604 1.37035 1.12226 -1.37532 1.01134 0.464191 0.730132 0.408995 
0.762415 -0.313978 0.601811 1.49564 -2.49443 1.51488 1.2401 -1.80499 1.13497 
0.98536 -1.04439 0.818087 0.553607 0.355302 0.422604 0.205949 1.47658 0.202677 
1.71701 -3.04893 1.89459 1.86316 -3.36246 2.17156 0.323728 1.08048 0.253582 
0.854224 -0.723677 0.638146 0.639212 -0.0283815 0.435174 1.34863 -2.18112 1.2744 
1.09436 -1.46913 0.914952 0.425854 0.665195 0.267453 1.59071 -2.79667 1.67419 
0.217059 1.27968 0.0957378 0.726168 -0.418914 0.462307 0.953862 -1.13853 0.708876 
1.2023 -1.85942 1.04062 0.513111 0.272218 0.27219 1.45548 -2.51979 1.44185 
1.74457 -3.15806 1.97472 1.91332 -3.473 2.31876 0.112187 1.58337 0.018945 
0.319026 0.897635 0.125171 0.81821 -0.817156 0.514444 0.597845 -0.115683 0.288516 
1.05783 -1.53426 0.81556 1.31247 -2.21971 1.20086 1.59686 -2.87752 1.70653 
0.395464 0.53673 0.114789 0.214508 1.10562 -0.0234297 1.95296 -3.51095 2.46694 
1.75814 -3.19766 2.04856 0.114207 1.39682 -0.104342 0.685324 -0.504111 0.326945 
0.916161 -1.20994 0.600328 1.16653 -1.90597 0.960458 1.44161 -2.57169 1.42874 
0.47385 0.169927 0.120313 0.0185745 1.6729 -0.174535 0.279113 0.789682 -0.042743 
1.58101 -2.87912 1.7136 0.77785 -0.890425 0.394987 1.28645 -2.25702 1.15774 
1.0205 -1.58545 0.725641 0.555613 -0.203306 0.145439 0.349869 0.451371 -0.0467035 
1.84043 -3.30497 2.28037 0.149672 1.10925 -0.191564 1.98889 -3.47536 2.64229 
1.41246 -2.56351 1.40168 0.0351604 1.4313 -0.292699 1.13291 -1.93765 0.896212 
0.876723 -1.26529 0.499842 0.642794 -0.579332 0.197921 1.69179 -3.06542 1.98171 
0.426659 0.0953571 -0.0316719 -0.0669468 1.74068 -0.35909 0.218002 0.77316 -0.208281 
1.25032 -2.2491 1.10938 1.52937 -2.7896 1.66433 0.982601 -1.61885 0.646432 
0.736126 -0.949625 0.283869 0.509224 -0.270999 0.00699352 0.294074 0.414998 -0.203688 
0.0868037 1.10732 -0.35529 1.83205 -3.21487 2.35047 2.01196 -3.3715 2.79923 
1.36592 -2.4991 1.35313 -0.0328368 1.43302 -0.469998 1.09396 -1.93771 0.834828 
0.836055 -1.30322 0.408608 0.597757 -0.636471 0.0760532 1.65755 -2.96229 1.98493 
-0.144335 1.79109 -0.531708 0.375508 0.0455109 -0.17685 0.163349 0.739238 -0.363687 
1.89667 -3.16479 2.59674 1.20756 -2.20711 1.06037 1.48555 -2.6915 1.63762 
0.941954 -1.62814 0.574291 0.692619 -0.990041 0.181224 0.460759 -0.320988 -0.123757 
0.0392854 1.05257 -0.506982 0.245375 0.359308 -0.348669 1.75692 -3.00726 2.28265 
-0.130963 1.57666 -0.635884 2.02537 -3.1729 2.96476 1.32448 -2.42131 1.32493 
1.05261 -1.91268 0.780641 0.793663 -1.32009 0.326046 0.551648 -0.676876 -0.0365581 
0.122043 0.659456 -0.505589 1.5925 -2.79222 1.9282 0.327716 -0.0100078 -0.311726 
-0.0682577 1.28855 -0.646551 -0.231208 1.83611 -0.730989 1.8828 -2.96975 2.68124 
1.1677 -2.14761 1.02783 0.900595 -1.61623 0.512438 1.4366 -2.55893 1.61207 
0.648539 -1.0126 0.088882 0.00991658 0.919647 -0.650466 0.414253 -0.367025 -0.2431 
0.200423 0.289739 -0.486248 1.70757 -2.82527 2.26476 -0.196271 1.55886 -0.814428 
2.02404 -2.91699 3.09573 1.01343 -1.86914 0.741791 1.28266 -2.31646 1.30709 
0.751749 -1.31883 0.255717 -0.101823 1.17956 -0.790748 0.50693 -0.707001 -0.136795 
0.281744 -0.065231 -0.436929 0.0803259 0.567645 -0.648922 1.55103 -2.62436 1.93344 
-0.310664 1.86747 -0.91746 1.79024 -2.74654 2.54967 1.90847 -2.70877 2.88877 
1.12934 -2.06475 1.00928 0.861554 -1.58666 0.466133 0.606216 -1.02142 0.0105334 
1.39907 -2.41392 1.61985 0.369331 -0.405755 -0.35052 -0.037211 0.840049 -0.804087 
0.154719 0.223434 -0.618682 -0.201848 1.376 -0.9328 1.64998 -2.58859 2.24756 
-0.29749 1.64643 -1.01923 2.00555 -2.56696 3.20207 0.976684 -1.80459 0.718619 
0.712453 -1.30163 0.20137 1.24764 -2.19324 1.31276 0.46423 -0.725576 -0.222922 
0.235918 -0.111585 -0.55272 0.0308331 0.505825 -0.791514 -0.147894 1.0774 -0.955973 
1.50867 -2.42155 1.94578 -0.396287 1.89209 -1.12171 1.76954 -2.49908 2.62078 
0.825211 -1.53758 0.436026 1.09583 -1.96149 1.01036 0.566357 -1.01532 -0.0522029 
0.325404 -0.432038 -0.445649 1.87907 -2.37495 2.95856 1.36408 -2.24059 1.64101 
-0.266991 1.36317 -1.10028 0.105694 0.177755 -0.745011 -0.0884052 0.769925 -0.957325 
1.62806 -2.35632 2.31343 -0.372655 1.64078 -1.21036 1.97008 -2.1802 3.25627 
0.943543 -1.7188 0.712696 0.675752 -1.26585 0.163069 1.21617 -2.04469 1.33387 
0.423066 -0.728427 -0.295089 0.189138 -0.140141 -0.658771 -0.020688 0.45727 -0.927865 
1.48558 -2.21059 2.00312 -0.211802 1.05736 -1.11862 1.74167 -2.21109 2.67618 
-0.476915 1.90768 -1.31632 0.791833 -1.46723 0.422162 1.0651 -1.83335 1.02535 
0.528504 -0.99056 -0.099943 -0.332772 1.3505 -1.26636 0.281739 -0.440086 -0.528874 
1.33984 -2.05094 1.68915 1.84154 -2.0161 2.99815 0.0559465 0.14761 -0.861803 
-0.148504 0.748236 -1.10538 1.60284 -2.09367 2.37017 -0.445695 1.63964 -1.39081 
1.91825 -1.76916 3.25787 0.912946 -1.60869 0.720787 0.641391 -1.20876 0.139983 
1.18919 -1.87437 1.36873 0.382956 -0.711524 -0.353998 1.46073 -1.97235 2.05546 
0.142474 -0.151197 -0.753419 -0.275463 1.04565 -1.27344 -0.0766556 0.440674 -1.05725 
1.70816 -1.89524 2.71329 -0.553912 1.91631 -1.50357 1.03703 -1.68099 1.05172 
0.760708 -1.37304 0.422139 1.31071 -1.83475 1.7252 0.492227 -0.944133 -0.13387 
-0.399229 1.34505 -1.42763 0.238821 -0.428783 -0.599576 1.57163 -1.80746 2.40758 
0.00438131 0.14174 -0.969612 1.79245 -1.637 2.9987 -0.208354 0.739072 -1.24393 
-0.516524 1.63864 -1.56315 1.15936 -1.67593 1.3994 0.884337 -1.47355 0.739929 
1.42249 -1.71464 2.06964 0.608901 -1.12822 0.13023 1.85049 -1.34548 3.20663 
0.344234 -0.673759 -0.399572 0.0956364 -0.140916 -0.837275 -0.33827 1.0411 -1.41992 
1.66445 -1.56421 2.71659 -0.131921 0.438206 -1.17578 -0.627649 1.91941 -1.68354 
1.51696 -1.52506 2.37446 1.27365 -1.59135 1.74205 1.00771 -1.50063 1.07936 
0.73129 -1.25397 0.433301 -0.46442 1.3419 -1.58202 0.457714 -0.875245 -0.154598 
0.196895 -0.396875 -0.658012 -0.0457976 0.150999 -1.06514 -0.266654 0.738598 -1.37196 
1.7277 -1.25289 2.94807 -0.584917 1.63601 -1.72788 1.5883 -1.28967 2.61645 
1.37342 -1.43335 2.05594 1.1252 -1.44954 1.42145 0.855414 -1.31105 0.763607 
0.577986 -1.02343 0.131865 0.307166 -0.614717 -0.43236 -0.399066 1.04065 -1.55688 
1.7697 -0.927371 3.10753 0.0507811 -0.114251 -0.907777 -0.185006 0.44613 -1.28193 
-0.698216 1.91852 -1.85559 1.62491 -1.02308 2.76666 1.45366 -1.21506 2.32128 
1.231 -1.32242 1.7451 0.976083 -1.29271 1.10427 -0.527609 1.34013 -1.72826 
0.70217 -1.10843 0.451185 0.424963 -0.783617 -0.163421 0.157412 -0.347006 -0.702514 
-0.322382 0.74456 -1.48825 -0.0932817 0.172655 -1.14685 1.66559 -0.783775 2.90355 
-0.65094 1.63249 -1.88474 1.32028 -1.12823 2.03099 1.50695 -0.945727 2.51662 
1.08772 -1.19787 1.43562 0.825453 -1.12167 0.788422 0.54812 -0.893903 0.142309 
0.272525 -0.535513 -0.451882 -0.457412 1.04421 -1.68342 0.00900682 -0.0729692 -0.963569 
-0.235156 0.463286 -1.3747 1.66577 -0.472774 2.94669 -0.765368 1.91538 -2.0182 
1.54864 -0.65583 2.66921 1.18525 -1.03169 1.73826 1.3874 -0.87711 2.25988 
0.942325 -1.05952 1.12487 -0.588654 1.34081 -1.86551 0.672962 -0.936909 0.473188 
0.394113 -0.669404 -0.16127 0.121032 -0.279822 -0.732496 -0.375203 0.757502 -1.59201 
-0.137427 0.206253 -1.21386 1.5668 -0.369026 2.74965 -0.714865 1.62979 -2.03351 
1.43707 -0.58917 2.43572 1.2639 -0.804227 1.99381 1.04755 -0.924299 1.44122 
0.794187 -0.906952 0.811786 0.519192 -0.739923 0.15981 0.240555 -0.436041 -0.458559 
-0.513146 1.05337 -1.79863 -0.0292581 -0.0168389 -1.00419 -0.281855 0.490171 -1.45309 
-0.828539 1.91168 -2.16929 1.55496 -0.0566192 2.75029 1.46336 -0.286296 2.54067 
1.32386 -0.532463 2.19558 1.13618 -0.7236 1.71857 -0.647539 1.34625 -1.99281 
0.906272 -0.80353 1.13872 0.643427 -0.740574 0.496861 0.365039 -0.532355 -0.149639 
0.0878415 -0.194441 -0.748319 -0.4248 0.778761 -1.6823 -0.177731 0.252337 -1.26534 
1.46486 0.0180734 2.57204 -0.77713 1.63078 -2.17389 1.36067 -0.234095 2.32868 
1.20648 -0.472621 1.94533 1.00407 -0.632136 1.43467 0.761233 -0.668782 0.83083 
0.490801 -0.561757 0.181848 0.211101 -0.315443 -0.453634 -0.565916 1.06984 -1.90127 
-0.0637964 0.0551942 -1.02955 -0.324408 0.527278 -1.51577 -0.886519 1.9088 -2.30557 
1.43861 0.324962 2.52627 1.37264 0.0737853 2.3877 1.25469 -0.188115 2.10745 
1.08438 -0.405228 1.68458 0.867277 -0.527723 1.14221 -0.704241 1.3592 -2.10916 
0.613001 -0.520518 0.519088 0.33738 -0.372172 -0.130704 0.0578419 -0.0898227 -0.750763 
-0.469805 0.807867 -1.75653 -0.213736 0.311904 -1.30055 -0.93781 1.90749 -2.42358 
-0.362131 0.575523 -1.56136 -0.0944646 0.144471 -1.03983 0.183788 -0.17282 -0.439078 
0.462398 -0.36002 0.20545 1.27862 0.113139 2.19724 1.14377 -0.138571 1.87449 
0.725977 -0.409655 0.84206 0.957305 -0.327195 1.41357 1.35843 0.379534 2.37093 
-0.613357 1.0913 -1.98706 -0.838706 1.64036 -2.30611 -0.245216 0.386645 -1.3192 
-0.509208 0.845389 -1.8125 0.0307284 0.0354821 -0.74132 0.31044 -0.188687 -0.10758 
0.5811 -0.278829 0.536457 -0.754085 1.37272 -2.2067 0.82499 -0.236544 1.13231 
1.0275 -0.0811417 1.62963 1.17991 0.150641 1.99528 1.27673 0.417676 2.21138 
1.31799 0.673773 2.28112 -0.985943 1.90821 -2.53143 -0.394683 0.63684 -1.58906 
-0.121451 0.252791 -1.03608 -0.654288 1.11831 -2.05322 0.158011 -0.00757467 -0.41764 
0.433219 -0.136126 0.226868 0.688052 -0.133317 0.842437 0.9057 -0.013338 1.37299 
1.07532 0.193485 1.77991 1.19116 0.447625 2.0424 -0.890512 1.64313 -2.41545 
1.24762 0.715761 2.14906 -0.272441 0.479068 -1.32217 -0.542787 0.89396 -1.84928 
0.00594828 0.182665 -0.722398 0.283465 0.0173295 -0.0838308 0.546924 -0.0184913 0.544951 
0.778634 0.0662299 1.10563 -0.79649 1.38932 -2.28305 0.96479 0.244855 1.55139 
1.09932 0.480282 1.85916 1.17635 0.741908 2.01463 1.19407 0.991704 2.01987 
-1.03343 1.91204 -2.63401 -0.422404 0.714449 -1.59952 -0.145467 0.382345 -1.02064 
-0.689065 1.15532 -2.09939 0.132932 0.18053 -0.392779 0.402249 0.1079 0.241736 
0.646298 0.156403 0.827406 0.849027 0.30622 1.31156 1.00078 0.520208 1.66098 
1.09888 0.766047 1.86648 -0.937023 1.65744 -2.50537 1.13208 1.02942 1.90781 
-0.296122 0.591952 -1.31155 -0.571257 0.958021 -1.86788 -0.0174433 0.352783 -0.697485 
0.255383 0.244592 -0.063873 0.509232 0.257514 0.539885 -0.834008 1.41924 -2.34104 
0.727252 0.375695 1.05849 1.01319 0.797316 1.70035 0.8969 0.570522 1.45108 
1.0726 1.04443 1.80115 -1.07774 1.92098 -2.72436 1.0667 1.28221 1.74475 
-0.446165 0.81186 -1.59491 -0.167502 0.53483 -0.996949 -0.719229 1.20859 -2.12794 
0.107517 0.390571 -0.36884 0.368359 0.369264 0.245501 0.599639 0.455376 0.793033 
0.78685 0.62461 1.22708 1.00256 1.06386 1.67241 0.921496 0.843229 1.52093 
-0.977262 1.6822 -2.57448 1.01009 1.32593 1.64477 -0.317392 0.727771 -1.29082 
-0.59577 1.04179 -1.87087 -0.0405349 0.545633 -0.670903 0.224975 0.490663 -0.0525461 
0.466905 0.545066 0.517016 -0.866237 1.46391 -2.37996 0.67019 0.686793 0.988475 
0.823786 0.887106 1.32784 0.923421 1.1107 1.52289 0.967973 1.31622 1.57836 
-1.11685 1.93742 -2.79693 -0.467162 0.932048 -1.57866 -0.188814 0.710975 -0.969475 
0.934683 1.54992 1.45522 -0.74493 1.28051 -2.13948 0.0804038 0.620917 -0.35093 
0.330169 0.644498 0.233265 0.547197 0.758473 0.736198 0.718971 0.936483 1.11891 
0.838817 1.14749 1.36201 0.903765 1.36444 1.46083 -1.01087 1.71895 -2.62185 
0.885928 1.56376 1.38258 -0.616966 1.14772 -1.86039 -0.33751 0.887781 -1.26432 
-0.0649545 0.760443 -0.648278 0.190757 0.752661 -0.0550255 -0.893017 1.52532 -2.39961 
0.418855 0.839631 0.47265 0.606924 0.9938 0.894049 0.746165 1.18797 1.18367 
0.834354 1.39258 1.3359 -1.14935 1.96426 -2.84764 -0.486617 1.07689 -1.55474 
0.819186 1.60154 1.26951 -0.766479 1.37331 -2.13528 -0.211146 0.910569 -0.944051 
0.0496874 0.869436 -0.345206 0.817446 1.76323 1.19595 0.286488 0.929307 0.20093 
0.753978 1.4259 1.18837 0.488293 1.06055 0.654913 0.645339 1.23534 0.987412 
-1.03778 1.77062 -2.64696 -0.636019 1.27809 -1.8401 0.774297 1.78363 1.13561 
-0.358433 1.0728 -1.23811 0.746553 1.6345 1.14447 -0.092841 0.995616 -0.636356 
-0.914606 1.60595 -2.40099 0.151213 1.02691 -0.0762821 0.663963 1.46682 1.02007 
0.364573 1.13598 0.404877 0.537118 1.29177 0.774908 -1.17405 2.00464 -2.87329 
0.717287 1.81332 1.04618 -0.506586 1.24779 -1.52932 -0.785006 1.48964 -2.11873 
-0.237067 1.13284 -0.928344 0.665338 1.67421 1.00016 0.0134882 1.1326 -0.357659 
0.565789 1.51753 0.8337 0.23693 1.21867 0.146557 0.423008 1.35706 0.54947 
0.700186 1.95657 0.935757 -1.05808 1.84072 -2.64994 0.648078 1.85299 0.930478 
-0.655064 1.43502 -1.8161 -0.383129 1.2828 -1.22072 0.662313 1.98025 0.887726 
0.5761 1.72413 0.837396 -0.126741 1.24805 -0.642735 -0.932169 1.70866 -2.38742 
0.105809 1.30783 -0.118961 0.461318 1.57763 0.633178 0.304468 1.42945 0.314295 
-1.19001 2.06208 -2.87162 0.613531 2.00825 0.817217 -0.802674 1.63194 -2.09585 
0.56884 1.90453 0.792058 -0.530279 1.44569 -1.51128 -0.270092 1.37548 -0.932123 
-0.0285298 1.40456 -0.390751 0.48041 1.78428 0.659607 0.181675 1.50661 0.0697931 
0.352463 1.64481 0.422659 0.585058 2.1293 0.680277 -1.0728 1.93404 -2.63307 
0.546752 2.05753 0.707314 -0.676958 1.61967 -1.79641 -0.416873 1.51697 -1.22565 
-0.948363 1.83597 -2.36606 0.481906 1.96732 0.635731 0.550226 2.15968 0.638616 
-0.166581 1.51124 -0.669262 0.0548332 1.58933 -0.183404 0.380864 1.85188 0.472398 
0.239297 1.7145 0.202487 0.50958 2.18786 0.585537 -1.1963 2.14053 -2.84088 
0.468715 2.12218 0.571716 -0.820777 1.79999 -2.07143 -0.566608 1.67302 -1.52161 
-0.308957 1.6302 -0.95509 -0.0762666 1.67918 -0.445414 0.390799 2.04014 0.468478 
0.121635 1.78763 -0.0276198 0.277608 1.91877 0.276928 0.471845 2.28445 0.429747 
-1.08425 2.0577 -2.60119 0.443654 2.24775 0.477444 -0.960442 1.98029 -2.33478 
-0.45584 1.76292 -1.24793 -0.718751 1.8427 -1.81831 -0.212344 1.77894 -0.717163 
0.384916 2.20217 0.419909 -0.000921262 1.86559 -0.268314 0.170078 1.98673 0.0720023 
0.29695 2.10859 0.295721 0.436077 2.32638 0.383684 0.408752 2.34686 0.359724 
-1.19192 2.24554 -2.77933 0.365612 2.33485 0.335381 -0.606835 1.90942 -1.54634 
-0.354137 1.89038 -0.999652 -0.128571 1.95038 -0.519742 -0.873781 2.02105 -2.11741 
0.0573675 2.05714 -0.14416 0.299592 2.27435 0.266664 0.199544 2.17577 0.115308 
0.359648 2.425 0.182876 -1.04748 2.17147 -2.46729 0.337502 2.43439 0.227469 
-0.502236 2.01421 -1.29361 -0.262035 2.04367 -0.783029 -0.762058 2.06712 -1.85043 
-0.0606717 2.13215 -0.371817 0.288249 2.41023 0.19922 0.0972226 2.24237 -0.0754168 
0.211506 2.34446 0.107804 0.327199 2.46982 0.153403 -1.17868 2.36244 -2.70064 
-0.92601 2.2187 -2.17419 -0.401814 2.14604 -1.05888 0.266933 2.51198 0.105579 
-0.657931 2.14969 -1.60138 -0.184403 2.213 -0.611536 -0.0105863 2.31187 -0.277908 
0.119345 2.41069 -0.0586906 0.208628 2.48484 0.0583001 0.263661 2.53543 -0.0266419 
-1.05641 2.33842 -2.43038 0.249026 2.56614 0.0170216 -0.548309 2.25629 -1.34796 
-0.825786 2.29131 -1.93334 -0.313923 2.30001 -0.863336 -0.124031 2.38482 -0.492437 
0.0218699 2.47789 -0.23625 0.194183 2.59141 -0.0228199 0.126184 2.55264 -0.0859186 
0.231746 2.58675 -0.0612745 -0.701529 2.36965 -1.65064 -0.449007 2.39247 -1.1266 
-1.1559 2.50938 -2.59849 0.175168 2.6563 -0.117969 -0.243106 2.46278 -0.718944 
-0.0816567 2.54688 -0.426382 0.038837 2.62051 -0.239923 -0.991795 2.4543 -2.25386 
0.120536 2.66198 -0.147658 0.16701 2.63778 -0.23532 0.151268 2.68399 -0.221851 
-0.853911 2.48913 -1.94977 -0.587941 2.48639 -1.398 -0.366989 2.54464 -0.95568 
-0.191207 2.61993 -0.629322 -0.0546668 2.68797 -0.405856 0.107146 2.73245 -0.229981 
0.0427503 2.73251 -0.280671 -0.726324 2.58246 -1.6681 -1.12918 2.6514 -2.49887 
-0.494028 2.62789 -1.1993 0.0866887 2.76752 -0.3256 -0.306176 2.69742 -0.84384 
-0.154876 2.75868 -0.585796 -0.0407672 2.80057 -0.423087 -0.991161 2.64211 -2.2077 
0.0363862 2.8085 -0.349047 0.0872612 2.71576 -0.40526 -0.860017 2.68297 -1.92728 
0.064426 2.77214 -0.417336 -0.620895 2.71054 -1.44311 -0.425337 2.77612 -1.06729 
-0.131492 2.87125 -0.580233 -0.0380565 2.87961 -0.470231 -0.261162 2.83428 -0.778867 
0.0209151 2.84778 -0.43848 -0.745093 2.79314 -1.68168 -1.09428 2.8145 -2.38612 
-0.547201 2.85451 -1.29666 -0.0446624 2.92324 -0.538767 -0.119755 2.95267 -0.606154 
-0.228334 2.94586 -0.750887 -0.372535 2.91172 -0.98262 -0.976869 2.83694 -2.14117 
-0.00422893 2.85308 -0.547162 0.00452784 2.79085 -0.578672 -0.864143 2.87487 -1.90952 
-0.67048 2.93082 -1.52925 -0.058107 2.93352 -0.619324 -0.118466 3.00129 -0.656594 
-0.207131 3.02869 -0.755492 -0.487464 2.98654 -1.19373 -0.331076 3.0231 -0.933968 
-0.795419 3.00566 -1.76509 -1.05107 2.99072 -2.26604 -0.0634821 2.8487 -0.718428 
-0.0789334 2.91888 -0.708942 -0.125286 3.0182 -0.72223 -0.605736 3.05778 -1.41175 
-0.196796 3.08022 -0.787589 -0.300195 3.10474 -0.916158 -0.437637 3.09811 -1.12485 
-0.931618 3.02848 -2.02632 -0.13697 3.00801 -0.792169 -0.728803 3.12107 -1.63905 
-0.278855 3.15585 -0.924522 -0.19635 3.09966 -0.841403 -0.544857 3.1658 -1.31733 
-0.399962 3.18134 -1.09012 -0.863718 3.16157 -1.88915 -0.131887 2.90425 -0.855784 
-0.151119 2.97728 -0.860337 -1.00395 3.15286 -2.1545 -0.652795 3.22399 -1.51131 
-0.368266 3.22978 -1.07399 -0.267696 3.17592 -0.957431 -0.204286 3.08754 -0.910256 
-0.501898 3.25386 -1.26917 -0.760869 3.26354 -1.7051 -0.345406 3.24977 -1.08052 
-0.265205 3.16164 -1.00867 -0.464792 3.30517 -1.23946 -0.214079 3.04421 -0.976196 
-0.60234 3.31349 -1.44488 -0.858084 3.29395 -1.88057 -0.960023 3.27874 -2.06551 
-0.200418 2.95868 -0.989165 -0.33209 3.24014 -1.10752 -0.429713 3.32122 -1.21829 
-0.703728 3.35911 -1.62142 -0.562895 3.37319 -1.40865 -0.270456 3.10962 -1.07343 
-0.805177 3.38952 -1.79781 -0.404411 3.31176 -1.22141 -0.32584 3.2 -1.14503 
-0.260486 3.00658 -1.10166 -0.522255 3.39129 -1.37416 -0.908542 3.39312 -1.97688 
-0.657331 3.42162 -1.56831 -0.480342 3.3761 -1.34139 -0.389779 3.27216 -1.24497 
-0.328171 3.13919 -1.19077 -0.759748 3.4532 -1.73885 -0.616244 3.45036 -1.53337 
-0.313511 3.05051 -1.19655 -0.857866 3.46829 -1.90297 -0.45326 3.33576 -1.34231 
-0.383401 3.20339 -1.27828 -0.56428 3.43428 -1.48046 -0.715414 3.48394 -1.68827 
-0.5191 3.39239 -1.44108 -0.371777 3.10241 -1.29501 -0.437251 3.26053 -1.36162 
-0.806985 3.50707 -1.8387 -0.681974 3.49047 -1.66023 -0.633803 3.46811 -1.60573 
-0.489553 3.31712 -1.43692 -0.589781 3.42749 -1.56139 -0.42551 3.15612 -1.37943 
-0.755715 3.51106 -1.78029 -0.543929 3.36731 -1.51419 -0.478633 3.21628 -1.45645 
-0.700757 3.48245 -1.72081 -0.532498 3.28414 -1.52809 -0.647031 3.43042 -1.6627 
-0.591473 3.36194 -1.5999 
