# vtk DataFile Version 3.0
vtk output
ASCII
DATASET POLYDATA
POINTS 724 float
10.3586 -10.9801 12.4055 10.4739 -11.6423 12.2485 10.2663 -10.2205 12.6997 
10.6062 -12.2195 12.2043 10.2137 -9.50229 13.0745 10.4032 -10.4893 12.9111 
10.7607 -12.7373 12.2558 10.1921 -8.80068 13.5196 10.5137 -11.06 12.7988 
10.3586 -9.85882 13.2676 10.6299 -11.5621 12.7507 10.7431 -12.0518 12.702 
10.9163 -13.157 12.3838 10.323 -9.23405 13.6355 10.1974 -8.1247 14.0152 
10.5156 -10.3914 13.3407 10.877 -12.375 12.8346 10.649 -10.962 13.2873 
10.3103 -8.60884 14.059 10.4687 -9.70559 13.7475 11.0791 -13.5132 12.5763 
10.228 -7.44789 14.5722 10.7907 -11.5271 13.2517 11.0198 -12.7481 12.951 
10.3086 -7.96026 14.511 10.4373 -9.03062 14.1714 10.6158 -10.2208 13.8029 
10.95 -11.9545 13.3722 11.2467 -13.8098 12.8253 10.7519 -10.7634 13.7764 
10.2722 -6.8866 15.0742 10.4195 -8.33321 14.6267 10.5729 -9.50431 14.2493 
11.1727 -13.0792 13.1267 10.3771 -7.54111 15.025 10.8933 -11.2333 13.8104 
11.1113 -12.3597 13.5091 10.7103 -10.0052 14.2896 10.5417 -8.78821 14.6986 
10.3349 -6.30894 15.6234 11.4218 -14.0572 13.1334 11.3341 -13.4096 13.3315 
11.0492 -11.648 13.924 10.4028 -6.94165 15.4881 10.8451 -10.4976 14.3043 
10.5081 -8.03311 15.1322 10.6716 -9.26693 14.7572 11.2819 -12.7744 13.6637 
10.99 -10.9474 14.3648 10.5085 -7.37939 15.5694 10.6385 -8.52572 15.2062 
10.8042 -9.75343 14.7991 11.2121 -12.0743 14.0409 11.5751 -14.2286 13.4392 
10.453 -6.34202 16.0023 10.4161 -5.71529 16.2168 11.4667 -13.3997 13.7076 
10.9404 -10.2306 14.8371 11.1475 -11.3797 14.4625 10.627 -7.83302 15.6553 
10.7699 -9.01507 15.2647 11.383 -12.5859 14.1092 10.539 -6.72198 16.07 
11.6289 -13.7389 13.918 11.0874 -10.6848 14.9035 10.9031 -9.50112 15.3126 
10.7504 -8.30462 15.7203 11.3128 -11.8502 14.54 10.6358 -7.14061 16.1301 
10.544 -5.89132 16.5445 10.5021 -5.18302 16.7706 11.7468 -14.3746 13.8165 
11.5351 -12.9707 14.2332 11.041 -9.97649 15.3629 11.2457 -11.1434 14.9791 
10.8782 -8.78384 15.7749 10.7453 -7.59404 16.1856 10.6401 -6.33689 16.6122 
11.4749 -12.2677 14.6523 11.6893 -13.3155 14.4011 10.5888 -4.70196 17.2847 
10.6413 -5.49972 17.0578 11.8085 -13.8878 14.3162 11.1882 -10.4422 15.4252 
11.0098 -9.26336 15.8258 10.8642 -8.06741 16.2356 10.7439 -6.82977 16.6535 
11.4084 -11.5803 15.0729 11.919 -14.4757 14.228 11.6402 -12.6746 14.7829 
10.7498 -6.05078 17.1084 11.1472 -9.73721 15.8795 10.8576 -7.32858 16.6944 
10.9896 -8.54942 16.2834 11.3447 -10.8929 15.5043 11.578 -12.0196 15.1771 
10.7052 -4.87754 17.5655 11.8174 -13.236 14.8267 10.6946 -4.1696 17.8682 
10.8612 -6.58751 17.1452 11.9604 -13.8614 14.7594 10.9784 -7.82698 16.737 
11.1202 -9.02875 16.3343 11.2933 -10.1996 15.9447 10.786 -5.36029 17.5765 
11.5108 -11.3487 15.587 12.0769 -14.53 14.6307 11.7596 -12.5535 15.2296 
10.9785 -7.10722 17.1835 10.8838 -5.88087 17.6002 11.104 -8.31697 16.7851 
11.2575 -9.5001 16.3917 11.4498 -10.6631 16.0147 11.6887 -11.8574 15.6415 
11.9401 -13.1432 15.245 10.8217 -4.53586 18.0844 10.796 -3.7019 18.3921 
10.9927 -6.4048 17.6286 12.0964 -13.7666 15.2029 11.1 -7.60679 17.2306 
11.2349 -8.79699 16.8388 11.4034 -9.96951 16.4531 10.912 -5.12591 18.0691 
12.2213 -14.549 15.0152 11.6173 -11.1526 16.0691 11.8693 -12.3967 15.6739 
10.9072 -3.91705 18.6248 11.1089 -6.90336 17.6745 11.0142 -5.69066 18.0765 
11.225 -8.0934 17.2833 11.3726 -9.27142 16.896 11.559 -10.45 16.5079 
12.0432 -12.9436 15.6912 11.7911 -11.6529 16.1117 10.9692 -4.4316 18.569 
12.2543 -13.9887 15.477 10.9178 -3.18367 18.9859 11.1264 -6.19546 18.1198 
11.2285 -7.39061 17.7262 11.3554 -8.57189 17.3388 11.5178 -9.74861 16.9502 
11.9633 -12.1469 16.1488 11.0532 -5.00659 18.5347 11.723 -10.933 16.5568 
12.2012 -13.3534 15.7945 12.3845 -14.5371 15.4681 11.0298 -3.5578 19.1428 
11.2423 -6.68328 18.1703 11.3519 -7.87053 17.7812 11.1564 -5.49756 18.5737 
11.4924 -9.04788 17.3934 12.1263 -12.5807 16.2168 11.6707 -10.2252 17.0019 
11.8926 -11.4085 16.6047 11.0954 -4.26878 19.0063 12.3885 -13.8411 15.9411 
11.0369 -2.7129 19.5367 11.3607 -7.16376 18.2235 11.2665 -5.97626 18.6209 
11.4809 -8.34614 17.8358 12.2899 -13.0317 16.2832 11.6359 -9.52151 17.4463 
11.8318 -10.6951 17.0543 12.0627 -11.8557 16.6679 11.1931 -4.77503 19.0373 
12.5344 -14.4965 15.9008 11.1549 -3.61504 19.4716 11.1547 -2.92919 19.7739 
11.3802 -6.45246 18.6702 11.4825 -7.63987 18.2775 11.6161 -8.81854 17.8892 
11.2979 -5.25336 19.0807 11.7869 -9.99011 17.4998 12.234 -12.3069 16.7315 
12.0007 -11.1497 17.1152 12.4429 -13.3611 16.433 11.2453 -4.06963 19.5156 
12.5657 -13.9091 16.3688 11.1733 -2.20664 20.1399 11.4964 -6.92711 18.7211 
11.6099 -8.11251 18.331 11.4073 -5.7279 19.125 11.7583 -9.28652 17.9428 
11.9472 -10.4499 17.559 12.1756 -11.6038 17.1786 12.4011 -12.6985 16.8427 
11.3402 -4.5266 19.5535 12.6958 -14.4229 16.3856 11.2806 -3.26027 19.9775 
11.6167 -7.40061 18.7727 11.5196 -6.20262 19.1701 11.7437 -8.58147 18.3844 
11.9086 -9.74964 18.0002 11.2944 -2.50491 20.3436 11.4425 -4.99115 19.5903 
12.5729 -13.2161 16.8847 12.1178 -10.9082 17.621 12.3511 -12.0316 17.2654 
11.3777 -3.72762 20.029 12.713 -13.7649 16.8627 11.3088 -1.73603 20.711 
11.6347 -6.67864 19.2165 11.7426 -7.87142 18.8249 11.55 -5.46352 19.6272 
11.8849 -9.04681 18.4397 12.0693 -10.2122 18.0602 12.2954 -11.3557 17.6939 
11.4764 -4.20573 20.0608 12.5312 -12.5255 17.3198 11.4104 -2.90229 20.4846 
12.846 -14.3255 16.8597 11.7541 -7.15277 19.2657 11.6612 -5.94357 19.6651 
11.875 -8.33955 18.8784 12.7032 -13.0597 17.3469 12.0352 -9.51229 18.4974 
11.5813 -4.68983 20.0898 11.4303 -2.09254 20.8845 12.2411 -10.6719 18.1251 
12.4789 -11.8405 17.7495 11.5097 -3.38641 20.5279 12.8527 -13.6265 17.3361 
11.4466 -1.29109 21.2619 11.7761 -6.42262 19.708 11.8788 -7.62478 19.3168 
11.691 -5.18627 20.1166 12.0154 -8.80755 18.9336 11.6117 -3.88704 20.5511 
12.1964 -9.97926 18.5574 12.6604 -12.358 17.7877 12.4224 -11.1534 18.1793 
11.541 -2.54085 20.9823 12.9874 -14.206 17.3304 11.8042 -5.67683 20.1517 
11.8948 -6.89953 19.7552 11.7207 -4.41109 20.5657 12.0098 -8.09619 19.3694 
12.8329 -12.9072 17.8059 12.1655 -9.27827 18.99 11.6421 -3.05679 21.0091 
12.3694 -10.4609 18.6103 11.5682 -1.69545 21.408 12.6071 -11.6598 18.221 
12.9861 -13.4802 17.8033 11.8347 -4.91844 20.5941 11.9199 -6.16127 20.1936 
11.7497 -3.62834 21.0061 12.0183 -7.3755 19.8047 11.5894 -0.868919 21.799 
12.1492 -8.56956 19.4226 12.3269 -9.76032 19.0415 12.7884 -12.192 18.2497 
11.6739 -2.20402 21.4605 12.5512 -10.9602 18.6529 13.1212 -14.0658 17.8 
11.779 -2.85435 21.4299 11.8654 -4.1549 21.031 11.9504 -5.41247 20.6316 
12.0386 -6.64288 20.2397 12.96 -12.7466 18.266 12.1478 -7.85227 19.8554 
12.2986 -9.05119 19.473 12.4997 -10.256 19.085 12.735 -11.4797 18.6859 
11.7121 -1.3442 21.91 13.1139 -13.3187 18.2718 11.8097 -2.11358 21.8251 
11.8965 -3.39535 21.458 11.9828 -4.65762 21.0672 12.067 -5.89964 20.6747 
12.1608 -7.12434 20.288 12.2857 -8.33405 19.9042 12.9145 -12.0183 18.7112 
11.7363 -0.47356 22.3172 12.4593 -9.54445 19.5169 12.6805 -10.7665 19.12 
13.2476 -13.9064 18.2695 11.8529 -1.45493 22.1997 11.9302 -2.64615 21.8725 
12.0161 -3.90137 21.4981 12.0999 -5.1491 21.1087 13.084 -12.573 18.7301 
12.1853 -6.38498 20.7206 12.2886 -7.60778 20.3359 12.4338 -8.82437 19.9487 
12.8623 -11.2927 19.1494 12.6311 -10.0493 19.5538 11.8658 -0.764509 22.5061 
13.237 -13.14 18.7456 12.0513 -3.1461 21.9225 11.9738 -1.91913 22.2833 
12.1346 -4.39427 21.5406 12.2167 -5.63652 21.1532 12.3058 -6.87128 20.7674 
12.4243 -8.0963 20.3808 13.0389 -11.8333 19.1758 12.5931 -9.3251 19.9872 
12.8099 -10.5664 19.5853 11.9084 -0.0555758 22.8831 13.3662 -13.7305 18.7371 
12.0082 -1.15173 22.6744 12.1713 -3.63618 21.9699 12.0926 -2.39566 22.3438 
12.2518 -4.88208 21.5848 13.2053 -12.385 19.2011 12.3338 -6.12413 21.1993 
12.431 -7.35961 20.813 12.5705 -8.5927 20.4208 12.9885 -11.0959 19.6144 
12.763 -9.83601 20.0205 12.0399 -0.420858 23.0333 13.3557 -12.9433 19.2285 
12.1329 -1.61929 22.7574 12.2119 -2.87598 22.3965 12.2894 -4.12265 22.0152 
12.368 -5.36934 21.6305 12.4521 -6.61353 21.2451 12.5644 -7.85287 20.8549 
13.1613 -11.6365 19.6448 12.7279 -9.09838 20.456 12.9387 -10.3571 20.0507 
13.4759 -13.5414 19.199 12.0816 0.325347 23.4165 12.173 -0.847023 23.1539 
12.2537 -2.0994 22.8172 12.3304 -3.35861 22.4444 13.3238 -12.1833 19.6795 
12.406 -4.60847 22.0612 12.4834 -5.85818 21.6769 12.5746 -7.10527 21.2888 
12.7085 -8.35307 20.8923 13.1131 -10.8883 20.082 12.8948 -9.61285 20.4873 
12.2132 -0.0845185 23.5378 13.4705 -12.7291 19.7239 12.2973 -1.31765 23.2285 
12.3733 -2.58281 22.869 12.4474 -3.84223 22.4909 12.521 -5.09596 22.108 
12.5991 -6.3494 21.7222 12.7055 -7.60148 21.3289 13.2809 -11.4277 20.1183 
12.8632 -8.86165 20.9253 13.0657 -10.1353 20.5179 13.5747 -13.3443 19.6464 
12.258 0.678684 23.9299 12.3418 -0.535816 23.6304 12.4185 -1.80016 23.286 
12.4915 -3.06752 22.9172 12.5628 -4.32763 22.538 13.4384 -11.9697 20.1651 
12.6341 -5.58548 22.1549 12.719 -6.84311 21.7651 12.847 -8.10384 21.3646 
13.2338 -10.6652 20.5525 13.0254 -9.37682 20.9562 13.6604 -13.1463 20.0671 
13.1897 -9.8976 20.9887 12.9979 -8.61263 21.3971 12.8472 -7.34086 21.8043 
12.7472 -6.07761 22.2003 12.4652 -1.0136 23.6955 12.5381 -2.2858 23.3375 
12.6758 -4.81542 22.586 12.6081 -3.55255 22.9651 12.3887 0.241627 24.0289 
13.3945 -11.1986 20.596 13.5814 -12.5014 20.2341 13.1541 -9.1257 21.429 
13.35 -10.4223 21.0277 12.9854 -7.84334 21.8396 12.8642 -6.57249 22.2428 
12.7863 -5.30511 22.6336 13.5439 -11.7263 20.6572 12.7221 -4.03895 23.0144 
12.6563 -2.77152 23.3876 12.5867 -1.49917 23.7505 12.5142 -0.225672 24.1018 
12.4387 1.00857 24.4304 13.74 -12.9334 20.4916 13.3105 -9.64203 21.4645 
13.1315 -8.35016 21.8727 13.5015 -10.9438 21.0806 12.9892 -7.07057 22.282 
12.8964 -5.79802 22.6794 12.8325 -4.52652 23.0643 12.7719 -3.25718 23.4385 
12.707 -1.98589 23.8035 12.6369 -0.709769 24.1586 13.68 -12.2239 20.7572 
12.5683 0.558164 24.5127 13.2807 -8.85922 21.9068 13.4615 -10.1577 21.5099 
13.1234 -7.5714 22.3182 13.0103 -6.29335 22.7226 12.9396 -5.01744 23.1128 
[...]
POINT_DATA 724
VECTORS velocity double
1.20845 0.187608 1.94808 1.00506 0.663736 1.79267 1.44068 -0.388406 2.10739 
0.823636 1.05904 1.6354 1.66041 -0.955813 2.24775 1.29245 -0.124004 1.91348 
0.65297 1.40064 1.46687 1.87402 -1.51931 2.38098 1.09839 0.321643 1.75137 
1.47124 -0.602176 2.01061 0.926885 0.699292 1.59969 0.769907 1.04277 1.4646 
0.503002 1.67325 1.29868 1.65764 -1.09447 2.12323 2.07538 -2.0541 2.50817 
1.23527 -0.122213 1.75376 0.632899 1.28989 1.3029 1.02234 0.342974 1.55568 
1.84152 -1.58544 2.23429 1.42498 -0.638352 1.85079 0.360875 1.90658 1.12035 
2.26716 -2.56001 2.63418 0.819639 0.778969 1.36822 0.487483 1.5536 1.13721 
2.03631 -2.08846 2.36906 1.61962 -1.15986 1.96314 1.19058 -0.165624 1.59306 
0.636875 1.12099 1.16077 0.223479 2.10876 0.929626 0.974373 0.292676 1.3798 
2.41437 -2.93978 2.73723 1.82718 -1.69862 2.10147 1.3834 -0.697894 1.68665 
0.34409 1.79034 0.956685 2.10476 -2.33541 2.35839 0.780458 0.683655 1.17729 
0.463376 1.43273 0.957993 1.14955 -0.23098 1.42604 1.58941 -1.24218 1.81229 
2.55007 -3.27625 2.84002 0.0841053 2.29148 0.718182 0.196803 2.02002 0.763383 
0.592705 1.03213 0.960908 2.27195 -2.74115 2.49417 0.934007 0.205722 1.19631 
1.83006 -1.82635 2.00483 1.34615 -0.771463 1.5242 0.288541 1.73522 0.749212 
0.73059 0.601005 0.970763 2.0254 -2.29331 2.1675 1.56378 -1.3262 1.67283 
1.10888 -0.307904 1.25174 0.406684 1.37106 0.746638 -0.0373596 2.43411 0.520375 
2.41878 -3.08532 2.61931 2.66782 -3.5481 2.93865 0.0949335 2.10307 0.558191 
0.883764 0.132284 0.998602 0.530375 0.974004 0.740675 1.76657 -1.82289 1.82914 
1.30608 -0.838295 1.35969 0.21662 1.72967 0.545592 2.20161 -2.70245 2.32111 
-0.0547398 2.32463 0.357681 0.667186 0.544782 0.751246 1.05819 -0.365869 1.0659 
1.50495 -1.34196 1.49621 0.331149 1.34837 0.520483 1.96363 -2.27962 2.00055 
2.46936 -3.22725 2.63281 2.75011 -3.71514 3.0162 -0.174524 2.57885 0.283609 
0.0609735 1.99525 0.361678 0.821132 0.0848681 0.789137 0.454418 0.944302 0.509101 
1.24528 -0.860958 1.17342 1.70721 -1.82063 1.66188 2.21374 -2.78914 2.27285 
0.150059 1.66994 0.310018 -0.0889709 2.22986 0.170042 2.80281 -3.79658 3.07383 
2.48517 -3.27903 2.61659 -0.209777 2.48978 0.0906912 0.592309 0.515038 0.52324 
0.991484 -0.388834 0.86426 1.44246 -1.34315 1.31942 1.93817 -2.3106 1.89492 
0.253789 1.3103 0.277459 -0.314495 2.71116 0.0293024 -0.0238437 1.96643 0.102887 
2.17733 -2.76501 2.17523 0.746089 0.0672809 0.569944 1.65719 -1.81859 1.51726 
1.17659 -0.860822 0.982291 0.373228 0.918909 0.267582 0.0592777 1.65716 0.0520733 
2.60576 -3.47042 2.77198 -0.202227 2.29853 -0.0757246 2.83325 -3.80261 3.11715 
1.87595 -2.2557 1.75341 -0.340371 2.58643 -0.174463 1.37598 -1.32274 1.14646 
0.915806 -0.386613 0.657093 0.50996 0.50212 0.288577 2.35298 -3.06504 2.39748 
0.161221 1.3056 0.0226456 -0.445337 2.82282 -0.218408 -0.135652 2.0205 -0.152212 
1.58013 -1.75097 1.34784 2.06773 -2.60118 1.98336 1.09982 -0.833764 0.788378 
0.663209 0.0719706 0.3463 0.281309 0.920383 0.0193987 -0.0473022 1.69362 -0.204625 
-0.314747 2.36265 -0.322555 2.56181 -3.36562 2.70021 2.8333 -3.73174 3.13212 
1.77304 -2.11606 1.56436 -0.460026 2.65566 -0.435137 1.29171 -1.25586 0.959027 
0.831504 -0.357641 0.445811 0.418523 0.515306 0.0496766 2.26572 -2.90869 2.25265 
-0.566386 2.91726 -0.454937 0.0598121 1.32937 -0.23178 -0.24092 2.05856 -0.403423 
2.62634 -3.39063 2.81288 1.48191 -1.63278 1.15712 1.96268 -2.4306 1.80572 
1.01056 -0.770877 0.586141 0.571458 0.104414 0.119118 0.182098 0.945486 -0.229675 
-0.411648 2.38211 -0.568274 -0.1465 1.71227 -0.457067 2.39757 -3.06188 2.45281 
-0.599459 2.81893 -0.652983 2.80103 -3.56737 3.11607 1.66959 -1.96116 1.38111 
1.19454 -1.1524 0.761794 0.737331 -0.297669 0.22983 0.320372 0.552312 -0.189633 
-0.331753 2.05552 -0.652643 2.11707 -2.64362 2.02356 -0.0401014 1.3508 -0.48512 
-0.556881 2.62129 -0.734798 -0.705333 3.01689 -0.733876 2.55327 -3.18521 2.72397 
1.37984 -1.49282 0.968421 0.912209 -0.677635 0.379827 1.83755 -2.2124 1.60513 
0.472815 0.162506 -0.108586 -0.492992 2.33954 -0.829488 0.0817238 0.979126 -0.476586 
-0.244232 1.72199 -0.714234 2.27239 -2.81127 2.27014 -0.720682 2.87654 -0.927682 
2.74086 -3.34139 3.06671 1.0929 -1.02547 0.566531 1.55557 -1.77248 1.19026 
0.637099 -0.212366 0.0143067 -0.643812 2.60253 -0.990467 0.21944 0.605109 -0.426162 
-0.141267 1.37746 -0.739162 -0.428667 2.04976 -0.921525 1.99751 -2.40484 1.84487 
-0.835187 3.10314 -1.00056 2.36311 -2.84454 2.43949 2.52594 -2.98577 2.73228 
1.27155 -1.32541 0.779297 0.810468 -0.562276 0.177672 0.37127 0.239601 -0.332176 
1.72298 -1.9924 1.42806 -0.0206627 1.02523 -0.721159 -0.599284 2.35034 -1.109 
-0.347301 1.74167 -0.978904 -0.779205 2.80303 -1.16325 2.1185 -2.49332 2.05098 
-0.877809 3.01269 -1.21851 2.64303 -3.02213 2.97241 0.987632 -0.874886 0.375211 
0.534864 -0.107423 -0.195034 1.44502 -1.57071 1.01308 0.116718 0.674082 -0.657644 
-0.246414 1.41886 -0.994012 -0.538858 2.07797 -1.19733 -0.754677 2.60355 -1.29252 
1.86691 -2.12984 1.65756 -0.97784 3.19218 -1.2988 2.2693 -2.58439 2.32827 
0.706384 -0.425287 -0.0183636 1.16408 -1.1406 0.600478 0.268186 0.335118 -0.549086 
-0.125969 1.08877 -0.962404 2.41066 -2.65497 2.60297 1.60484 -1.7478 1.25435 
-0.902643 2.86728 -1.4375 -0.458279 1.78699 -1.24494 -0.714846 2.37684 -1.40076 
2.01971 -2.23418 1.92708 -1.01473 3.08632 -1.51904 2.52131 -2.66068 2.84289 
0.881696 -0.704515 0.192498 0.4309 0.0180356 -0.397231 1.33365 -1.34868 0.843796 
0.011625 0.762586 -0.883511 -0.356533 1.48276 -1.24622 -0.654721 2.12391 -1.47508 
1.76528 -1.87883 1.52341 -0.881645 2.66957 -1.57704 2.16065 -2.28599 2.20044 
-1.11452 3.27355 -1.58877 0.601175 -0.267799 -0.206174 1.05518 -0.934839 0.429005 
0.163185 0.451358 -0.758905 -1.02852 2.9348 -1.71615 -0.234773 1.17429 -1.19853 
1.50124 -1.50679 1.11128 2.28556 -2.30307 2.4611 -0.573046 1.85148 -1.50758 
-0.839802 2.4458 -1.68042 1.914 -1.95113 1.79876 -1.14719 3.16111 -1.80673 
2.3789 -2.26743 2.68024 0.774357 -0.513192 0.0174366 0.325458 0.164507 -0.591436 
1.2262 -1.11558 0.688994 -0.0960237 0.872963 -1.10261 1.65933 -1.60802 1.3892 
-0.469398 1.56691 -1.49221 -1.00801 2.74316 -1.85428 -0.776505 2.20064 -1.74355 
2.04384 -1.96549 2.064 -1.24711 3.35006 -1.87334 0.946705 -0.712341 0.267081 
0.494649 -0.0894586 -0.385918 1.38832 -1.24096 0.960279 0.0562764 0.589242 -0.960971 
-1.15481 3.00882 -1.99082 -0.345597 1.28055 -1.42684 1.79982 -1.64796 1.66094 
-0.691349 1.94052 -1.76124 2.14664 -1.92868 2.29791 -0.964036 2.52606 -1.94991 
-1.2762 3.2357 -2.08647 1.11159 -0.858116 0.530584 0.666325 -0.303051 -0.149371 
1.53321 -1.30713 1.22553 0.218761 0.331682 -0.777176 2.21807 -1.85112 2.48571 
-0.20492 1.0037 -1.31271 -0.584113 1.67233 -1.7285 -1.13268 2.82296 -2.12303 
1.91453 -1.62623 1.90813 -0.897345 2.29032 -2.00058 -1.37594 3.42327 -2.1524 
1.65272 -1.31515 1.46571 1.26149 -0.946068 0.792477 0.833419 -0.467386 0.105849 
0.38729 0.108093 -0.557257 -1.27923 3.08547 -2.25977 -0.0512496 0.746638 -1.15339 
-0.456974 1.40598 -1.6445 -0.808168 2.04306 -2.00231 -1.08571 2.61362 -2.20831 
1.98874 -1.53435 2.10094 -1.40201 3.3098 -2.35988 1.74154 -1.27393 1.66464 
1.38926 -0.975767 1.03641 0.988677 -0.57661 0.365429 0.555188 -0.0721499 -0.312357 
0.111563 0.517572 -0.953756 -0.313527 1.1522 -1.51158 -1.25427 2.90628 -2.38256 
2.04524 -1.42871 2.26693 -0.696835 1.7914 -1.9514 -1.01496 2.38831 -2.24451 
-1.50084 3.49439 -2.42481 1.7797 -1.16786 1.78321 1.49021 -0.951583 1.24927 
1.12565 -0.629009 0.614926 0.715298 -0.201918 -0.0559275 -1.40083 3.16396 -2.52174 
0.278188 0.324821 -0.72232 -0.158197 0.920875 -1.33486 -0.565891 1.54486 -1.84821 
-1.20346 2.70594 -2.45467 -0.921253 2.15474 -2.22883 1.84208 -1.1133 1.93889 
-1.5247 3.38434 -2.62696 1.23986 -0.627542 0.842344 1.55339 -0.866943 1.4087 
0.861043 -0.277683 0.198075 0.441551 0.176764 -0.471688 0.00439715 0.7201 -1.12112 
-0.419754 1.31428 -1.69703 -1.37214 2.99275 -2.63202 -0.80545 1.92014 -2.15884 
-1.12814 2.49248 -2.4744 1.84064 -0.955694 1.99779 -1.62098 3.56424 -2.68795 
1.61177 -0.776236 1.56415 0.987315 -0.300011 0.437214 1.32465 -0.57188 1.03238 
0.594752 0.0786392 -0.215656 -1.51926 3.24498 -2.77574 0.168445 0.557465 -0.880435 
-0.263171 1.1088 -1.50415 -0.670747 1.69406 -2.03646 -1.31662 2.80269 -2.68802 
-1.02937 2.27348 -2.43961 1.64403 -0.667425 1.67428 -1.64453 3.46082 -2.88758 
1.393 -0.488393 1.20181 1.08957 -0.271582 0.649639 0.732104 0.0317773 0.0328811 
0.327009 0.43944 -0.626007 -0.101419 0.935995 -1.27821 -0.52233 1.48731 -1.86788 
-1.48575 3.08294 -2.86997 -0.908905 2.05672 -2.34978 -1.23585 2.6018 -2.68871 
-1.73504 3.63316 -2.93824 1.63712 -0.510039 1.72138 1.43667 -0.380009 1.33192 
1.17243 -0.208006 0.838279 0.848798 0.0346638 0.26192 -1.63408 3.32966 -3.02005 
0.473643 0.369479 -0.371455 0.0595219 0.802112 -1.03036 -0.365197 1.30794 -1.66055 
-0.770797 1.85212 -2.20867 -1.42442 2.90378 -2.9068 -1.13144 2.3979 -2.63325 
1.45282 -0.249967 1.41492 -1.76173 3.54125 -3.14119 1.23087 -0.113913 0.990392 
0.946071 0.0760515 0.468772 0.603121 0.347286 -0.129195 0.212901 0.711887 -0.774233 
-0.204969 1.16247 -1.42447 -0.620565 1.66959 -2.02368 -1.59423 3.17705 -3.09428 
-1.00636 2.19993 -2.52326 -1.33681 2.71499 -2.88559 -1.84063 3.70044 -3.17005 
1.4353 -0.090519 1.44014 1.26287 0.00396976 1.09889 1.02051 0.14976 0.643404 
0.713948 0.365751 0.0937985 0.353076 0.666412 -0.522622 -1.74467 3.41908 -3.25252 
-0.0477185 1.05567 -1.1717 -0.463532 1.51609 -1.80362 -0.865202 2.01745 -2.36391 
-1.52478 3.00704 -3.10788 -1.2264 2.52683 -2.80832 -1.93502 3.76439 -3.37722 
-1.42984 2.83101 -3.0633 -1.097 2.34861 -2.67824 -0.713925 1.85953 -2.16412 
-0.305544 1.39684 -1.55963 1.06985 0.249207 0.778165 0.803599 0.418006 0.288921 
0.100301 0.990157 -0.915707 0.476618 0.661763 -0.285405 1.26525 0.143516 1.15598 
-1.69451 3.27164 -3.30072 -1.87675 3.6285 -3.38686 -1.31355 2.65965 -2.96374 
-1.61631 3.11139 -3.28912 -0.953557 2.18907 -2.50194 -0.557832 1.73134 -1.93353 
-0.152275 1.31445 -1.30385 -1.84592 3.50672 -3.46682 0.23476 0.963958 -0.66762 
0.580434 0.692398 -0.0720528 0.870036 0.496735 0.448715 1.09126 0.370585 0.865545 
1.23629 0.3022 1.15692 -2.02483 3.8296 -3.57432 -1.51423 2.9496 -3.22052 
-1.18039 2.50208 -2.81423 -1.78529 3.366 -3.48718 -0.802061 2.05552 -2.28925 
-0.402524 1.6361 -1.68362 -0.00924185 1.26929 -1.04909 0.351799 0.972997 -0.438079 
0.662518 0.750875 0.109887 0.910842 0.596833 0.565961 -1.98085 3.7111 -3.61451 
1.08095 0.513231 0.897288 -1.39273 2.79645 -3.09917 -1.69864 3.21742 -3.44951 
-1.03561 2.36584 -2.62275 -0.647646 1.9512 -2.05036 -0.253375 1.57461 -1.4267 
0.119355 1.25834 -0.806438 -1.93727 3.59361 -3.66137 0.448339 1.01174 -0.236329 
0.721307 0.830164 0.254222 0.923171 0.71598 0.633879 1.04085 0.66777 0.873927 
-2.11527 3.90079 -3.77276 -1.59007 3.07156 -3.357 -1.25673 2.66025 -2.93168 
-1.8667 3.46205 -3.65271 -0.884873 2.25596 -2.39953 -0.495628 1.87739 -1.79702 
-0.115606 1.54593 -1.17535 0.229933 1.27711 -0.585959 0.52317 1.07188 -0.0683514 
0.755187 0.9252 0.355697 -2.07489 3.79626 -3.81711 0.899344 0.860363 0.638728 
-1.46423 2.93761 -3.21495 -1.77216 3.32677 -3.58871 -1.11155 2.54689 -2.72711 
-0.732874 2.17334 -2.15488 -0.35113 1.83345 -1.54152 -2.01976 3.68405 -3.83371 
0.00707623 1.54579 -0.939936 0.575215 1.14667 0.060985 0.320305 1.31899 -0.395185 
0.760647 1.0362 0.407303 -2.20208 3.97619 -3.96306 0.848171 1.00826 0.590995 
-1.65781 3.19775 -3.47296 -1.32634 2.82274 -3.03139 -1.93957 3.56217 -3.7966 
-0.962264 2.45864 -2.49563 -0.584803 2.11784 -1.90081 -0.218846 1.81699 -1.29572 
0.111793 1.56889 -0.729145 0.603879 1.23055 0.14857 0.389681 1.37641 -0.23877 
-2.15844 3.88261 -3.99518 0.718665 1.18795 0.378577 -1.52865 3.08335 -3.31207 
-1.83756 3.44068 -3.70695 -1.18149 2.73054 -2.81584 -0.813624 2.39511 -2.24825 
-0.445627 2.08783 -1.64958 -2.09276 3.7773 -3.98284 -0.101856 1.82275 -1.06887 
0.197207 1.60805 -0.548732 0.438631 1.44148 -0.118256 0.606015 1.32467 0.188689 
-2.28182 4.05423 -4.13752 -1.71814 3.32865 -3.56937 -1.3897 2.98861 -3.11455 
0.65629 1.32724 0.306123 -2.00364 3.66611 -3.91833 -1.03462 2.66153 -2.57905 
-0.670534 2.35496 -1.99682 -0.319096 2.0792 -1.41154 -0.00226984 1.84475 -0.868068 
0.264369 1.65392 -0.399907 0.46893 1.50686 -0.0320401 -2.23124 3.96986 -4.14851 
0.523568 1.50348 0.0860036 -1.89492 3.55892 -3.80437 -1.5865 3.23299 -3.39166 
-1.24623 2.91549 -2.89099 -0.890526 2.61437 -2.33247 -2.15582 3.87282 -4.10798 
-0.537272 2.33498 -1.75257 -0.207683 2.08605 -1.19465 0.0800853 1.87426 -0.696226 
0.316737 1.69557 -0.279078 -2.35196 4.13374 -4.29049 -1.7716 3.46391 -3.6473 
0.368438 1.70674 -0.165638 -2.05871 3.77335 -4.01752 -1.44776 3.15685 -3.18331 
-1.10313 2.86325 -2.65262 0.492355 1.58364 0.061005 -0.753265 2.586 -2.08677 
0.147735 1.90077 -0.551767 -0.416744 2.32975 -1.52431 -0.112676 2.10167 -1.00429 
-2.2929 4.05796 -4.27612 -1.94477 3.68125 -3.88185 0.372133 1.74761 -0.135764 
-1.63904 3.38616 -3.45617 0.204887 1.91219 -0.429892 -1.30721 3.10067 -2.95572 
-2.20862 3.97002 -4.20842 -0.964368 2.82888 -2.40981 -0.0329685 2.11688 -0.84145 
-0.625932 2.5714 -1.85116 -0.311031 2.33352 -1.3189 -2.41039 4.21351 -4.41731 
0.231775 1.93179 -0.36271 -1.81951 3.60334 -3.70916 -2.10522 3.88364 -4.09479 
-1.50245 3.32701 -3.24152 0.0325746 2.12404 -0.706301 -1.16899 3.06184 -2.71929 
-0.220724 2.33923 -1.14015 -0.832443 2.80709 -2.17076 -0.511308 2.56543 -1.63383 
0.334381 1.81637 -0.176122 -2.34289 4.14663 -4.37664 0.0759584 2.13082 -0.612298 
-1.98845 3.80771 -3.94172 -1.68855 3.54282 -3.50988 0.224174 1.97056 -0.35449 
-0.145752 2.34057 -0.990069 -1.36643 3.28484 -3.01423 -2.25155 4.06862 -4.28451 
-1.0347 3.03453 -2.48074 -0.411189 2.56266 -1.44061 -0.710287 2.79294 -1.94396 
-2.45522 4.29236 -4.51405 0.0983027 2.13839 -0.556633 -2.14443 3.99693 -4.15214 
-0.0891264 2.33826 -0.874427 -1.86431 3.74724 -3.7593 -1.55684 3.49887 -3.29501 
-1.23143 3.25277 -2.77917 -0.326565 2.55792 -1.27531 -0.907057 3.01374 -2.24818 
-0.600587 2.78202 -1.73682 0.185136 2.02291 -0.400397 -2.38129 4.23612 -4.44956 
-0.0491683 2.3307 -0.790375 -2.02784 3.93804 -3.98731 -1.73997 3.70446 -3.5613 
-2.28612 4.16835 -4.33844 -0.258546 2.54848 -1.14107 0.0830716 2.17012 -0.563439 
-1.42255 3.46266 -3.06594 -1.10036 3.2267 -2.54453 -0.50521 2.77007 -1.55465 
-0.788903 2.99512 -2.02939 -0.0273223 2.32141 -0.739321 -2.48468 4.36924 -4.57731 
-0.206057 2.53211 -1.03655 -2.17654 4.11113 -4.19047 -1.91457 3.90047 -3.81127 
-1.60809 3.66497 -3.34108 -1.28962 3.43176 -2.83214 -0.42519 2.75342 -1.40068 
-0.975508 3.20154 -2.31733 -0.683193 2.97544 -1.83158 0.0440681 2.20571 -0.612002 
-2.40901 4.32775 -4.49559 -0.167978 2.50845 -0.959709 -2.30899 4.26213 -4.36676 
-1.78741 3.85939 -3.60358 -2.07926 4.08476 -4.04284 -1.4749 3.62993 -3.11099 
-0.3595 2.72803 -1.27412 -1.16005 3.40126 -2.60008 -0.86038 3.1744 -2.10576 
-0.591674 2.95131 -1.65928 -0.0519855 2.34752 -0.762972 -0.142419 2.4774 -0.906676 
-2.49659 4.44313 -4.60307 -0.307301 2.69221 -1.1737 -1.9591 4.04411 -3.85116 
-1.6562 3.82144 -3.38099 -1.34179 3.5942 -2.87639 -2.23325 4.25277 -4.25465 
-1.0373 3.36784 -2.37802 -0.513911 2.91816 -1.51301 -0.75769 3.14268 -1.91605 
-0.0901259 2.36758 -0.812226 -2.38744 4.38713 -4.4638 -0.263722 2.64005 -1.09152 
-1.83307 4.00542 -3.6413 -1.52074 3.78066 -3.1462 -2.12207 4.21582 -4.08204 
-1.21293 3.55536 -2.64661 -0.44914 2.87324 -1.39206 -0.924857 3.32929 -2.17366 
-0.667807 3.10199 -1.75021 -0.193836 2.52826 -0.974541 -2.49009 4.50247 -4.59014 
-2.27926 4.36575 -4.3016 -1.69647 3.9599 -3.40879 -0.394686 2.81315 -1.29211 
-2.00548 4.18004 -3.89165 -1.38679 3.73669 -2.9107 -1.09224 3.51109 -2.43025 
-0.824004 3.28185 -1.99057 -0.589682 3.04787 -1.60737 -0.200446 2.49108 -0.9754 
-2.39208 4.46454 -4.45431 -0.335855 2.7216 -1.19069 -1.8683 4.12984 -3.66302 
-2.17612 4.34187 -4.136 -1.55806 3.9108 -3.16902 -1.25911 3.68731 -2.68465 
-0.981714 3.45792 -2.23227 -0.521437 2.97649 -1.48473 -0.734124 3.22086 -1.82883 
-0.290998 2.63361 -1.1152 -2.03499 4.28618 -3.90712 -1.7255 4.07575 -3.4196 
-2.46477 4.55517 -4.53874 -0.455795 2.87857 -1.37091 -1.42422 3.85703 -2.93478 
-1.14097 3.63007 -2.47529 -0.880869 3.39107 -2.0531 -2.32573 4.48159 -4.34107 
-0.654337 3.14311 -1.68744 -0.307481 2.6019 -1.13179 -0.399389 2.76619 -1.2753 
-2.18604 4.42141 -4.12349 -1.88638 4.22715 -3.65843 -1.58574 4.01786 -3.17783 
-1.29996 3.79689 -2.71649 -1.03151 3.55956 -2.28272 -0.581826 3.04469 -1.56195 
-0.78902 3.30674 -1.89217 -2.03442 4.35997 -3.87509 -2.42663 4.58813 -4.46247 
-1.74105 4.16633 -3.40984 -0.521653 2.93563 -1.4594 -1.4567 3.95631 -2.95263 
-1.18387 3.72433 -2.51374 -0.930319 3.4722 -2.10693 -2.30266 4.53276 -4.27835 
-0.705325 3.20218 -1.74814 -0.392779 2.68337 -1.25453 -2.16433 4.47097 -4.06049 
-0.47487 2.82714 -1.38056 -1.88564 4.29791 -3.62375 -1.60935 4.10527 -3.18112 
-1.0751 3.63552 -2.32596 -0.838154 3.36707 -1.94918 -1.33512 3.8827 -2.74141 
-0.631315 3.07933 -1.62268 -2.01614 4.41003 -3.81376 -2.36871 4.60678 -4.34858 
-1.75525 4.24051 -3.39767 -0.756666 3.24654 -1.81153 -0.975127 3.53008 -2.15556 
-1.21917 3.79212 -2.54233 -1.48387 4.03213 -2.96377 -2.2541 4.55978 -4.17192 
-0.568591 2.94022 -1.51676 -0.478765 2.75934 -1.37604 -2.13002 4.50065 -3.97568 
-1.89228 4.35918 -3.59881 -0.686584 3.11503 -1.6943 -0.886302 3.4108 -2.00582 
-1.11032 3.68423 -2.35769 -1.62826 4.16929 -3.17825 -1.36208 3.94106 -2.75536 
-2.01939 4.45942 -3.7821 -2.28802 4.60298 -4.19345 -0.547938 2.81639 -1.47188 
-0.63202 2.983 -1.60226 -0.809929 3.2822 -1.87805 -1.76698 4.29191 -3.38249 
-1.01006 3.55926 -2.18939 -1.24612 3.83206 -2.55956 -1.50141 4.07846 -2.96154 
-2.16041 4.54577 -3.99319 -0.746752 3.15184 -1.77266 -1.90169 4.39893 -3.57918 
-1.13546 3.70344 -2.37495 -0.919934 3.41898 -2.03918 -1.63346 4.19967 -3.15561 
-1.38207 3.97201 -2.75994 -2.04347 4.49359 -3.78759 -0.616754 2.8706 -1.56537 
-0.694496 3.02281 -1.68509 -2.19131 4.57091 -4.01209 -1.75845 4.30398 -3.33789 
-1.26615 3.84582 -2.56759 -1.03206 3.55565 -2.20377 -0.840696 3.26561 -1.90721 
-1.51088 4.09538 -2.94757 -1.87925 4.3926 -3.51456 -1.15506 3.70047 -2.38488 
-0.935953 3.38716 -2.04531 -1.39281 3.97302 -2.75105 -0.77095 3.1052 -1.79127 
-1.63152 4.2006 -3.12213 -1.97832 4.45456 -3.65696 -2.09398 4.51822 -3.83378 
-0.686134 2.9248 -1.65783 -1.05215 3.53843 -2.21627 -1.27562 3.83085 -2.56002 
-1.74764 4.29041 -3.28939 -1.5107 4.07961 -2.91875 -0.846651 3.19476 -1.8973 
-1.85798 4.36362 -3.44776 -1.16108 3.66544 -2.37361 -0.960097 3.36572 -2.06548 
-0.748456 2.97502 -1.73958 -1.39153 3.94157 -2.72401 -1.97283 4.43031 -3.61711 
-1.6223 4.17031 -3.0775 -1.269 3.78148 -2.52803 -1.05595 3.48273 -2.20188 
-0.885933 3.19731 -1.94173 -1.74186 4.2562 -3.24874 -1.49675 4.02627 -2.86831 
-0.806127 3.02499 -1.81465 -1.84878 4.31914 -3.40094 -1.14947 3.5911 -2.33435 
-0.96439 3.29242 -2.05065 -1.36768 3.86727 -2.66286 -1.62761 4.13492 -3.05767 
-1.2453 3.69604 -2.46984 -0.874259 3.09047 -1.90351 -1.03986 3.3799 -2.15457 
-1.72166 4.18624 -3.18488 -1.52386 4.0049 -2.88423 -1.4172 3.87483 -2.71634 
-1.12031 3.47784 -2.26753 -1.30999 3.72805 -2.54807 -0.944043 3.16658 -1.996 
-1.59423 4.03647 -2.97372 -1.20188 3.57089 -2.38156 -1.02177 3.26135 -2.10185 
-1.46192 3.86655 -2.76033 -1.11133 3.38023 -2.22809 -1.33945 3.69943 -2.56843 
-1.2226 3.53535 -2.39103 
