# vtk DataFile Version 3.0
vtk output
ASCII
DATASET POLYDATA
POINTS 724 float
10.6203 -10.9872 12.7966 10.6951 -11.5484 12.6076 10.5733 -10.3482 13.1228 
10.7908 -12.041 12.5306 10.5628 -9.7475 13.5254 10.6808 -10.5638 13.2938 
10.9106 -12.4851 12.5467 10.5814 -9.16136 13.9963 10.7533 -11.0415 13.1484 
10.6706 -10.0329 13.6694 10.8355 -11.4642 13.069 10.9172 -11.8806 12.9922 
11.0355 -12.8459 12.6392 10.6702 -9.50941 14.0594 10.624 -8.59396 14.5165 
10.7815 -10.4678 13.6899 11.0236 -12.1519 13.091 10.8734 -10.9423 13.596 
10.6919 -8.98433 14.5046 10.7708 -9.88928 14.1158 11.1692 -13.1517 12.794 
10.6898 -8.01901 15.0984 10.9751 -11.4161 13.5218 11.137 -12.4686 13.1728 
10.7262 -8.43738 14.9833 10.776 -9.32127 14.5619 10.8726 -10.3088 14.1189 
11.0982 -11.7721 13.5995 11.3087 -13.4048 13.0027 10.9667 -10.7573 14.049 
10.7607 -7.53357 15.6215 10.7969 -8.73312 15.0449 10.8663 -9.70259 14.584 
11.2609 -12.7492 13.3108 10.8064 -8.06837 15.4952 11.0703 -11.1466 14.0417 
11.2247 -12.1116 13.6945 10.9589 -10.1095 14.5718 10.8738 -9.09765 15.0587 
10.8481 -7.02248 16.193 11.4554 -13.6132 13.2665 11.3924 -13.0302 13.4751 
11.1892 -11.4891 14.111 10.863 -7.54977 15.9867 11.0521 -10.5131 14.54 
10.885 -8.46014 15.5314 10.9573 -9.48281 15.0595 11.3602 -12.4618 13.8057 
11.1576 -10.8822 14.5548 10.9217 -7.89974 16.0023 10.9649 -8.8543 15.5389 
11.0446 -9.87663 15.0468 11.3153 -11.8444 14.1839 11.5841 -13.7545 13.5309 
10.9403 -7.01811 16.5285 10.9509 -6.4817 16.8098 11.5051 -13.0054 13.8092 
11.1378 -10.2651 15.034 11.2761 -11.2378 14.6058 10.9912 -8.26145 16.0206 
11.0476 -9.24735 15.5351 11.4481 -12.2791 14.2104 10.9849 -7.32344 16.536 
11.6367 -13.2962 13.9776 11.2432 -10.6357 15.0506 11.1339 -9.63961 15.5244 
11.0653 -8.63904 16.0195 11.4021 -11.63 14.6382 11.0367 -7.65995 16.532 
11.0405 -6.59502 17.0772 11.0525 -5.98072 17.3843 11.7282 -13.8706 13.859 
11.5687 -12.6064 14.2961 11.2267 -10.0249 15.5195 11.3602 -11.0124 15.0772 
11.1443 -9.02394 16.0101 11.098 -8.02436 16.52 11.0881 -6.95596 17.0723 
11.5283 -11.9795 14.7073 11.6924 -12.9003 14.4242 11.1496 -5.51324 17.9163 
11.1409 -6.21284 17.5922 11.7854 -13.4112 14.321 11.3302 -10.4039 15.5285 
11.2282 -9.41035 15.9996 11.1673 -8.40502 16.5022 11.14 -7.35668 17.0379 
11.4838 -11.3735 15.1239 11.8724 -13.9448 14.218 11.6586 -12.3229 14.7951 
11.1911 -6.66562 17.5537 11.3192 -9.79357 15.9948 11.2011 -7.7608 17.0037 
11.243 -8.79304 16.4834 11.4445 -10.7723 15.5561 11.6149 -11.7398 15.1819 
11.2285 -5.62547 18.1385 11.7989 -12.8101 14.8007 11.2623 -4.97806 18.5174 
11.246 -7.1052 17.506 11.912 -13.3676 14.7106 11.2695 -8.1636 16.973 
11.3248 -9.17941 16.47 11.4203 -10.1688 16.0038 11.2612 -6.03162 18.0729 
11.5694 -11.1483 15.5892 12.0044 -13.977 14.5699 11.7572 -12.195 15.1916 
11.3082 -7.52857 17.4639 11.3053 -6.46462 18.013 11.3437 -8.55891 16.9504 
11.4146 -9.56019 16.4657 11.5331 -10.5475 16.0198 11.706 -11.5751 15.5968 
11.9004 -12.7078 15.1702 11.3378 -5.26105 18.6507 11.3653 -4.49165 19.0537 
11.3591 -6.89695 17.9576 12.0253 -13.2622 15.1021 11.3761 -7.93339 17.4342 
11.4245 -8.94618 16.9364 11.5141 -9.94115 16.468 11.3719 -5.76622 18.5436 
12.1249 -13.9778 14.9063 11.6575 -10.9526 16.023 11.8475 -12.0351 15.5872 
11.4375 -4.64153 19.2244 11.4213 -7.3041 17.9229 11.4171 -6.24189 18.4606 
11.4489 -8.32673 17.4134 11.5134 -9.32982 16.929 11.6245 -10.3346 16.4667 
11.9861 -12.5095 15.5688 11.7906 -11.3722 16.0192 11.4557 -5.09677 19.0934 
12.1548 -13.4486 15.3312 11.4833 -3.93436 19.6561 11.4749 -6.659 18.4193 
11.4877 -7.70012 17.8965 11.5284 -8.71356 17.3986 11.6112 -9.71797 16.9217 
11.9255 -11.792 16.015 11.4867 -5.59545 18.9709 11.7454 -10.7341 16.4636 
12.1138 -12.8653 15.6365 12.2609 -13.9472 15.3027 11.5484 -4.23766 19.7347 
11.5372 -7.05904 18.3882 11.5588 -8.08933 17.8763 11.5378 -6.007 18.926 
11.6159 -9.09956 17.3862 12.0556 -12.1633 16.0454 11.7185 -10.1085 16.9157 
11.8749 -11.1318 16.4641 11.56 -4.88383 19.502 12.2663 -13.2936 15.7412 
11.5934 -3.41174 20.2084 11.6026 -7.45147 18.3622 11.5957 -6.40443 18.8908 
11.6367 -8.47532 17.8588 12.1877 -12.5547 16.0768 11.7117 -9.48555 17.3756 
11.8366 -10.4968 16.9145 12.0082 -11.5088 16.484 11.6063 -5.31657 19.447 
12.3855 -13.8911 15.6817 11.6389 -4.22885 20.0119 11.6712 -3.56079 20.3813 
11.6569 -6.79764 18.8588 11.6721 -7.83967 18.3395 11.7222 -8.85973 17.8434 
11.6601 -5.71996 19.4073 11.8169 -9.86974 17.3697 12.1446 -11.8941 16.5076 
11.9651 -10.8753 16.9261 12.3126 -12.8387 16.1898 11.6835 -4.62097 19.9774 
12.4125 -13.3342 16.1103 11.7142 -2.8335 20.805 11.7207 -7.18811 18.8299 
11.7483 -8.22518 18.3191 11.7182 -6.11756 19.3691 11.8164 -9.24203 17.8319 
11.9337 -10.2491 17.3734 12.1017 -11.2576 16.9436 12.2798 -12.2293 16.5796 
11.7315 -5.0132 19.9363 12.5194 -13.802 16.1068 11.7496 -3.81811 20.5063 
11.789 -7.57687 18.8036 11.7786 -6.51329 19.3323 11.8324 -8.60839 18.3021 
11.9205 -9.62213 17.8277 11.7921 -3.06412 20.9368 11.7853 -5.40944 19.8926 
12.4196 -12.685 16.5884 12.0628 -10.6308 17.3834 12.2415 -11.6204 16.9872 
11.8001 -4.22428 20.4771 12.5341 -13.1792 16.5452 11.8294 -2.28236 21.3611 
11.8416 -6.90853 19.2979 11.8637 -7.96323 18.7806 11.8427 -5.80999 19.8477 
11.9252 -8.98974 18.2904 12.0367 -10.0044 17.8297 12.2012 -11.0066 17.408 
11.8515 -4.64042 20.4278 12.3866 -12.0479 17.0025 11.8617 -3.39586 20.9985 
12.6433 -13.6909 16.5232 11.9092 -7.30095 19.268 11.9026 -6.21492 19.8031 
11.9461 -8.34776 18.7619 12.5266 -12.5193 16.9969 12.0286 -9.37301 18.2842 
11.9076 -5.05923 20.3744 11.9071 -2.5747 21.4599 12.1661 -10.3874 17.8403 
12.3468 -11.4207 17.4191 11.9151 -3.82289 20.9611 12.6488 -13.0295 16.9624 
11.9427 -1.75065 21.8888 11.9656 -6.61661 19.7642 11.9826 -7.69109 19.2422 
11.9665 -5.48643 20.3168 12.0375 -8.7332 18.7477 11.9699 -4.2651 20.9021 
12.1444 -9.76006 18.2838 12.4927 -11.8703 17.4179 12.3066 -10.7943 17.8442 
11.9729 -2.96507 21.4791 12.7593 -13.5589 16.9374 12.0282 -5.90469 20.2677 
12.0326 -7.01483 19.7309 12.0288 -4.72619 20.8306 12.0632 -8.08091 19.2206 
12.6329 -12.356 17.4031 12.14 -9.12268 18.738 12.0288 -3.42857 21.425 
12.2737 -10.1638 18.2802 12.0212 -2.09591 21.9601 12.4526 -11.2287 17.8404 
12.7578 -12.8718 17.3751 12.0918 -5.16675 20.7732 12.0921 -6.3148 20.2266 
12.087 -3.9441 21.3342 12.1047 -7.41152 19.702 12.0571 -1.23744 22.3946 
12.1531 -8.47335 19.2025 12.2551 -9.52492 18.7269 12.5979 -11.6926 17.8291 
12.084 -2.55514 21.935 12.4138 -10.5879 18.271 12.8685 -13.4071 17.352 
12.1405 -3.15748 21.815 12.1526 -4.40956 21.2725 12.1561 -5.59158 20.7259 
12.159 -6.72066 20.1909 12.7369 -12.184 17.8116 12.1835 -7.80892 19.6767 
12.2542 -8.87486 19.1846 12.3835 -9.9431 18.7122 12.5586 -11.0355 18.2575 
12.1375 -1.65972 22.4302 12.862 -12.699 17.7905 12.1892 -2.39376 22.2571 
12.2095 -3.64271 21.7575 12.2198 -4.8486 21.2236 12.2213 -6.00766 20.6852 
12.2298 -7.12549 20.1592 12.2715 -8.2117 19.6522 12.7017 -11.5063 18.2418 
12.1729 -0.750504 22.8746 12.3681 -9.28951 19.164 12.5223 -10.3791 18.6941 
12.9711 -13.2367 17.7679 12.2405 -1.70055 22.6606 12.2636 -2.87415 22.2225 
12.2807 -4.09054 21.7139 12.2865 -5.27444 21.1808 12.8383 -11.9985 18.2258 
12.288 -6.42045 20.6486 12.3066 -7.53214 20.1295 12.3709 -8.62387 19.6268 
12.6645 -10.8342 18.6756 12.4951 -9.71821 19.1413 12.2653 -0.985038 23.0006 
12.962 -12.5091 18.2126 12.3389 -3.32086 22.1921 12.3201 -2.11539 22.6712 
12.3506 -4.52353 21.6734 12.3526 -5.69441 21.1418 12.3573 -6.83324 20.6145 
12.3924 -7.94422 20.0998 12.8045 -11.3079 18.6597 12.4832 -9.048 19.5994 
12.6315 -10.162 19.1182 12.3075 -0.230795 23.3908 13.0668 -13.0501 18.184 
12.3659 -1.3139 23.097 12.4126 -3.75648 22.1593 12.3972 -2.54411 22.658 
12.4186 -4.94956 21.6348 12.9376 -11.798 18.6485 12.4187 -6.11299 21.1053 
12.4317 -7.24788 20.5815 12.4899 -8.36511 20.0685 12.7704 -10.6218 19.098 
12.6082 -9.48461 19.5716 12.4033 -0.54648 23.479 13.0583 -12.3007 18.6453 
12.4508 -1.73475 23.1098 12.4736 -2.97556 22.6354 12.4839 -4.18698 22.1241 
12.4851 -5.37315 21.5979 12.4862 -6.53245 21.0699 12.5154 -7.66783 20.5477 
12.9061 -11.0966 19.0845 12.6002 -8.79672 20.0365 12.7412 -9.93422 19.5458 
13.1549 -12.8505 18.597 12.4429 0.2453 23.8706 12.4989 -0.924753 23.534 
12.5316 -2.16998 23.0988 12.5481 -3.40785 22.6068 13.0348 -11.5828 19.0807 
12.5527 -4.61484 22.0891 12.5504 -5.79676 21.5621 12.5585 -6.95402 21.0346 
12.611 -8.0956 20.5129 12.8754 -10.3972 19.526 12.7221 -9.23928 20.0054 
12.5412 -0.121167 23.9336 13.151 -12.0739 19.092 12.586 -1.35284 23.5429 
12.61 -2.60772 23.0782 12.62 -3.83928 22.5754 12.6191 -5.04246 22.0545 
12.6161 -6.22184 21.5265 12.6401 -7.38042 20.9984 13.0058 -10.8721 19.5164 
12.7188 -8.53312 20.4777 12.8503 -9.69249 19.9785 13.2336 -12.6432 18.9993 
12.5812 0.687725 24.3275 12.6357 -0.531372 23.9661 12.6691 -1.7936 23.5332 
12.6857 -3.04531 23.0526 12.6891 -4.27044 22.5436 13.1287 -11.3544 19.5225 
12.6833 -5.47062 22.0203 12.6865 -6.64918 21.4903 12.7335 -7.81384 20.9612 
12.9781 -10.1561 19.9605 12.8361 -8.97928 20.445 13.3014 -12.4351 19.3798 
12.9578 -9.43344 20.4188 12.838 -8.255 20.9249 12.7661 -7.08089 21.4533 
12.7474 -5.90053 21.9855 12.7243 -0.970526 23.97 12.7493 -2.23649 23.5156 
12.7549 -4.70207 22.512 12.7586 -3.48139 23.0251 12.6814 0.288834 24.3731 
13.101 -10.6268 19.9564 13.2402 -11.8319 19.5552 12.9497 -8.70234 20.8925 
13.0778 -9.89422 20.4038 12.8569 -7.51821 21.4156 12.8158 -6.33297 21.9497 
12.8178 -5.13431 22.4801 13.2156 -11.0962 19.9747 12.8278 -3.9168 22.9976 
12.8267 -2.67789 23.4947 12.8098 -1.41721 23.9616 12.7758 -0.142522 24.3912 
12.7238 1.10065 24.7695 13.364 -12.2119 19.7663 13.0637 -9.15505 20.8683 
12.9571 -7.96116 21.3795 13.1915 -10.3553 20.4076 12.8931 -6.76897 21.9129 
12.8801 -5.56893 22.447 12.8926 -4.35178 22.9702 12.9003 -3.11741 23.473 
12.8924 -1.86361 23.9488 12.8662 -0.591365 24.3913 13.3195 -11.5411 20.0355 
12.8257 0.68417 24.8035 13.0625 -8.40801 21.3489 13.1745 -9.60957 20.8585 
12.9808 -7.20862 21.8764 12.9465 -6.00574 22.4128 12.9534 -4.78895 22.941 
[...]
POINT_DATA 724
VECTORS velocity double
1.13458 -0.242701 1.55953 0.975529 0.188043 1.42863 1.3097 -0.75279 1.68855 
0.82967 0.551904 1.29225 1.4689 -1.24464 1.79791 1.1943 -0.537697 1.5197 
0.689905 0.870009 1.14366 1.61797 -1.72408 1.8996 1.04671 -0.147528 1.3842 
1.32403 -0.957577 1.59466 0.91341 0.188379 1.25522 0.788845 0.502225 1.13909 
0.565707 1.12518 0.993991 1.45564 -1.3796 1.68222 1.75395 -2.1719 1.99765 
1.14667 -0.558103 1.37904 0.679455 0.721369 0.998347 0.986193 -0.157681 1.21359 
1.58162 -1.79402 1.76894 1.28262 -1.00911 1.45522 0.447602 1.34306 0.83507 
1.88023 -2.58965 2.09996 0.830347 0.226346 1.05519 0.561898 0.962157 0.853821 
1.7133 -2.21138 1.87846 1.41813 -1.45384 1.54474 1.1092 -0.619386 1.24214 
0.68784 0.525171 0.878515 0.333723 1.52981 0.6657 0.948368 -0.230846 1.06552 
1.97607 -2.89908 2.19173 1.55993 -1.90391 1.65826 1.24582 -1.08217 1.31842 
0.445498 1.17799 0.696361 1.75212 -2.42068 1.87392 0.801851 0.104133 0.896632 
0.550981 0.802179 0.705175 1.07542 -0.701224 1.10569 1.3884 -1.54274 1.42302 
2.06495 -3.16871 2.29551 0.219072 1.69524 0.479288 0.324995 1.39024 0.527611 
0.658337 0.403395 0.715687 1.86457 -2.74927 1.9984 0.917262 -0.338207 0.917518 
1.55386 -2.02342 1.58584 1.2138 -1.16819 1.19021 0.411084 1.07706 0.525685 
0.766233 -0.00661122 0.732265 1.68691 -2.40294 1.73108 1.36432 -1.63305 1.31865 
1.04328 -0.794988 0.970248 0.514075 0.701264 0.535186 0.120182 1.82091 0.306536 
1.96416 -3.02367 2.12699 2.14442 -3.37977 2.41344 0.248421 1.43968 0.35507 
0.880369 -0.435411 0.765319 0.615775 0.310062 0.542551 1.50315 -2.04135 1.45885 
1.18178 -1.24998 1.06816 0.362348 1.03208 0.361902 1.80751 -2.73115 1.88144 
0.124469 1.651 0.180119 0.721998 -0.0945082 0.564594 1.00587 -0.874894 0.833285 
1.31935 -1.67107 1.1934 0.463059 0.638385 0.358227 1.63864 -2.40997 1.62125 
1.99786 -3.13535 2.17688 2.20369 -3.49991 2.52797 0.00990625 1.94404 0.102082 
0.23644 1.27998 0.203141 0.836482 -0.512114 0.611454 0.564208 0.242265 0.366516 
1.13758 -1.29824 0.937231 1.45903 -2.06209 1.34988 1.81456 -2.80681 1.88006 
0.321808 0.925767 0.180688 0.113958 1.50143 0.0375315 2.24639 -3.54471 2.63678 
2.01105 -3.17194 2.213 0.0022989 1.78807 -0.0452854 0.671217 -0.160479 0.397337 
0.959456 -0.928195 0.691905 1.27507 -1.69921 1.07792 1.62051 -2.44948 1.57203 
0.412874 0.557281 0.17525 -0.100968 2.05145 -0.114634 0.183434 1.19784 0.00393795 
1.79145 -2.79468 1.84643 0.78599 -0.565581 0.457624 1.42532 -2.0823 1.26905 
1.09074 -1.3299 0.811401 0.510781 0.175587 0.190054 0.262985 0.864323 -0.01359 
2.10506 -3.29871 2.40971 0.0331957 1.52814 -0.158147 2.27929 -3.516 2.75758 
1.58068 -2.42191 1.50249 -0.0944852 1.84572 -0.261544 1.23144 -1.71067 0.974734 
0.909389 -0.962686 0.554476 0.617258 -0.214304 0.232527 1.92257 -3.00926 2.08985 
0.352505 0.50592 -0.0113459 -0.203034 2.13709 -0.322866 0.10634 1.2056 -0.192522 
1.37657 -2.05171 1.17722 1.7211 -2.67778 1.74532 1.04138 -1.34114 0.692186 
0.732446 -0.602461 0.308268 0.451315 0.13111 0.0148531 0.191827 0.852452 -0.204279 
-0.0457478 1.54949 -0.350925 2.08434 -3.19932 2.42491 2.29385 -3.41891 2.85808 
1.51659 -2.33037 1.40383 -0.179572 1.87173 -0.468432 1.17898 -1.68638 0.869159 
0.856139 -0.976988 0.42221 0.558986 -0.247537 0.0714457 1.87104 -2.88556 2.03831 
-0.296103 2.20509 -0.519113 0.286668 0.48061 -0.192974 0.0362261 1.19602 -0.380442 
2.14825 -3.16913 2.61661 1.31709 -1.9826 1.07845 1.65808 -2.55382 1.66451 
0.986591 -1.32493 0.575296 0.6752 -0.617843 0.163716 0.388314 0.106238 -0.15521 
-0.108155 1.5196 -0.534561 0.128416 0.821374 -0.385044 1.98022 -2.95946 2.29306 
-0.294065 2.02652 -0.654339 2.2914 -3.22979 2.95391 1.4563 -2.22546 1.32088 
1.12123 -1.63388 0.765495 0.798945 -0.967324 0.294461 0.498115 -0.261842 -0.0833381 
-0.0191809 1.14125 -0.557959 1.77961 -2.68392 1.92096 0.224003 0.450574 -0.367029 
-0.232294 1.76273 -0.686346 -0.401408 2.27158 -0.747523 2.1148 -2.97006 2.6368 
1.25879 -1.8952 0.991536 0.928827 -1.28498 0.46416 1.58572 -2.39234 1.57739 
0.615674 -0.613032 0.0260679 -0.151518 1.41523 -0.716783 0.326597 0.0867598 -0.316736 
0.0685525 0.777806 -0.562065 1.90675 -2.75519 2.21673 -0.377461 2.03553 -0.866548 
2.27022 -2.98503 3.01814 1.06392 -1.56176 0.672855 1.39283 -2.09227 1.24263 
0.740474 -0.937471 0.175161 -0.280852 1.68285 -0.86766 0.437589 -0.264136 -0.228835 
0.162516 0.422423 -0.534683 -0.0762574 1.07732 -0.742618 1.7139 -2.4927 1.86104 
-0.498485 2.32424 -0.963094 1.99126 -2.71086 2.4541 2.12279 -2.73074 2.77004 
1.1999 -1.78382 0.913954 0.871873 -1.22627 0.364822 0.556689 -0.592893 -0.100858 
1.52483 -2.22263 1.52023 0.265578 0.0762894 -0.469487 -0.215619 1.36532 -0.912217 
0.00676662 0.739749 -0.738024 -0.396436 1.8865 -1.02325 1.81904 -2.49378 2.12913 
-0.499032 2.14368 -1.10292 2.22552 -2.64978 3.05326 1.00739 -1.46829 0.591984 
0.68339 -0.890673 0.0685091 1.33535 -1.94319 1.18459 0.378086 -0.253376 -0.36331 
0.100064 0.405164 -0.696352 -0.143099 1.04524 -0.92929 -0.345401 1.61444 -1.07845 
1.64447 -2.26768 1.80358 -0.603867 2.37363 -1.20131 1.94726 -2.46188 2.46041 
0.816207 -1.14771 0.278193 1.14476 -1.65367 0.852809 0.499072 -0.556753 -0.215318 
0.204464 0.0799983 -0.613082 2.0657 -2.40293 2.7704 1.46477 -2.02705 1.47341 
-0.480188 1.90106 -1.22771 -0.0598575 0.724301 -0.910564 -0.285351 1.3272 -1.11153 
1.77311 -2.25519 2.12795 -0.594504 2.16694 -1.3326 2.16204 -2.27849 3.04556 
0.953228 -1.35454 0.525302 0.627649 -0.82484 -0.0253132 1.28017 -1.77137 1.13954 
0.318986 -0.225597 -0.486863 0.035378 0.407491 -0.850909 -0.213129 1.02823 -1.11266 
1.5973 -2.04583 1.79365 -0.428839 1.62436 -1.28271 1.89386 -2.17514 2.45243 
-0.70379 2.41436 -1.43033 0.762264 -1.04845 0.204834 1.09111 -1.50067 0.80331 
0.442268 -0.501309 -0.317766 -0.56514 1.91699 -1.43288 0.142412 0.103343 -0.747388 
1.41658 -1.82252 1.45475 2.00026 -2.05334 2.74926 -0.128237 0.72592 -1.07596 
-0.365037 1.33667 -1.30412 1.72286 -1.99005 2.12059 -0.687209 2.19377 -1.55105 
2.08124 -1.88212 2.99518 0.900337 -1.2181 0.470265 0.573025 -0.737948 -0.106741 
1.22922 -1.58215 1.10855 0.259755 -0.177264 -0.599766 1.54759 -1.80059 1.78139 
-0.0301963 0.428534 -0.996257 -0.512074 1.64271 -1.47965 -0.288611 1.04353 -1.28894 
1.83419 -1.86405 2.43132 -0.799841 2.44882 -1.65277 1.03932 -1.3266 0.764482 
0.709351 -0.926651 0.142988 1.36212 -1.59332 1.42632 0.385844 -0.424198 -0.408938 
-0.650873 1.94028 -1.63387 0.0800957 0.146762 -0.871297 1.66593 -1.70389 2.0988 
-0.199342 0.752442 -1.23301 1.92286 -1.68418 2.69773 -0.444574 1.35872 -1.48746 
-0.777362 2.2208 -1.76171 1.17398 -1.36709 1.07401 0.848421 -1.05919 0.425053 
1.48252 -1.53375 1.73562 0.519117 -0.62863 -0.177002 1.98411 -1.47058 2.90193 
0.200898 -0.108048 -0.701412 -0.0967724 0.471321 -1.13185 -0.594382 1.66829 -1.66865 
1.76381 -1.5377 2.38329 -0.363593 1.07306 -1.45478 -0.892425 2.47856 -1.86874 
1.58298 -1.41131 2.01318 1.29785 -1.33748 1.3805 0.984966 -1.12714 0.726795 
0.657107 -0.782136 0.0909208 -0.735265 1.96627 -1.82878 0.330187 -0.325526 -0.488775 
0.0179916 0.210656 -0.98421 -0.269328 0.794062 -1.37839 -0.522471 1.38946 -1.66067 
1.82907 -1.30572 2.60321 -0.86487 2.24677 -1.96553 1.65815 -1.24422 2.23895 
1.40453 -1.24208 1.66408 1.11302 -1.12629 1.03196 0.795038 -0.87561 0.383902 
0.465822 -0.496973 -0.237265 0.142938 -0.0184609 -0.791581 -0.674498 1.69817 -1.84877 
1.87456 -1.06081 2.77086 -0.16169 0.530069 -1.25488 -0.436336 1.11282 -1.60871 
-0.981586 2.50507 -2.07754 1.69409 -1.03643 2.38064 1.48939 -1.09099 1.90827 
1.22683 -1.05806 1.323 0.927242 -0.903112 0.687214 -0.817505 1.99412 -2.01644 
0.604163 -0.61383 0.0449392 0.27554 -0.205928 -0.557823 -0.0420358 0.291447 -1.08407 
-0.597587 1.42655 -1.82273 -0.336614 0.847542 -1.51054 1.74042 -0.863608 2.52791 
-0.949843 2.27256 -2.16248 1.32194 -0.929549 1.58426 1.54417 -0.887851 2.09193 
1.04805 -0.863456 0.984345 0.73978 -0.668506 0.344508 0.412823 -0.343283 -0.28929 
0.0869614 0.0894443 -0.869363 -0.751946 1.73221 -2.01924 -0.223582 0.60233 -1.36389 
-0.505969 1.16135 -1.74987 1.73936 -0.610541 2.58438 -1.06693 2.52982 -2.27733 
1.58957 -0.669861 2.24925 1.15265 -0.760611 1.25951 1.39268 -0.747182 1.79868 
0.86692 -0.657648 0.645542 -0.897438 2.02487 -2.19609 0.550488 -0.423065 0.00352443 
0.222327 -0.0665071 -0.616383 -0.0991075 0.387715 -1.17013 -0.669534 1.47033 -1.9729 
-0.400417 0.911943 -1.62861 1.61098 -0.448118 2.34627 -1.0326 2.29992 -2.3525 
1.44637 -0.53236 1.97462 1.23662 -0.602099 1.49755 0.980465 -0.582864 0.932143 
0.682866 -0.440185 0.305632 0.360352 -0.16879 -0.333917 0.0334407 0.214894 -0.93474 
-0.826509 1.77177 -2.17911 -0.281893 0.687697 -1.45836 -0.571859 1.21871 -1.87719 
-1.14767 2.55409 -2.46558 1.59978 -0.193634 2.37199 1.47655 -0.299922 2.09373 
1.30167 -0.403897 1.69547 1.0758 -0.449836 1.1889 -0.974983 2.06053 -2.36665 
0.804385 -0.393799 0.600826 0.496284 -0.211837 -0.0345048 0.170673 0.092118 -0.665247 
-0.153014 0.499588 -1.2425 -0.737907 1.52172 -2.11016 -0.460105 0.987193 -1.73167 
1.48136 -0.0593078 2.15078 -1.1136 2.33158 -2.53538 1.34337 -0.17871 1.83918 
1.15233 -0.272088 1.40794 0.910164 -0.287951 0.873336 0.624376 -0.193087 0.265794 
0.308337 0.0254494 -0.372604 -0.0176009 0.35791 -0.988428 -0.897724 1.81811 -2.32695 
-0.336282 0.786482 -1.53798 -0.633154 1.28479 -1.98926 -1.22221 2.5785 -2.63814 
1.45674 0.192977 2.13907 1.35998 0.0605023 1.92206 1.20663 -0.0622946 1.57684 
0.997795 -0.133167 1.11176 0.739477 -0.114727 0.550979 -1.05001 2.10341 -2.52687 
0.441366 0.0181936 -0.0710009 0.12048 0.26942 -0.705689 -0.20357 0.627228 -1.30146 
-0.80109 1.57963 -2.23175 -0.515081 1.07356 -1.81883 -1.28862 2.60288 -2.79051 
-0.68904 1.35984 -2.08461 -0.386452 0.899163 -1.60258 -0.0663314 0.518548 -1.03162 
0.256555 0.23818 -0.407143 1.23656 0.166811 1.68756 1.06438 0.0582029 1.30442 
0.564171 0.0699773 0.222994 0.837888 0.0153639 0.807256 1.34953 0.305762 1.93941 
-0.962902 1.8684 -2.45844 -1.1938 2.37196 -2.71117 -0.565014 1.17193 -1.88957 
-0.857948 1.64404 -2.33554 -0.250924 0.77123 -1.34789 0.0713157 0.464885 -0.739741 
0.385598 0.264515 -0.107905 -1.11742 2.14639 -2.66922 0.672445 0.175023 0.494571 
0.916292 0.186348 1.02197 1.10782 0.272863 1.44262 1.24019 0.405526 1.73456 
1.31133 0.550321 1.89031 -1.35149 2.62932 -2.93328 -0.739099 1.44502 -2.16232 
-0.432458 1.02666 -1.65265 -1.02079 1.92275 -2.57108 -0.113114 0.696633 -1.06606 
0.204635 0.467512 -0.439854 0.502449 0.345044 0.175775 0.762301 0.324027 0.729837 
0.9725 0.384979 1.18573 1.12628 0.499819 1.52029 -1.26363 2.40638 -2.86635 
1.21532 0.647516 1.71346 -0.610107 1.28396 -1.94436 -0.908251 1.71689 -2.42064 
-0.295435 0.931949 -1.38331 0.0227659 0.677175 -0.769639 0.328654 0.52398 -0.147678 
0.60294 0.471905 0.429383 -1.17666 2.19153 -2.7917 0.830735 0.505493 0.917571 
1.00514 0.598544 1.29252 1.11802 0.731721 1.53339 1.16434 0.879536 1.62945 
-1.41432 2.66051 -3.07397 -0.783664 1.54273 -2.22277 -0.474914 1.17034 -1.68987 
-1.07178 1.98481 -2.66441 -0.158533 0.891765 -1.09404 0.151958 0.711205 -0.473629 
0.438451 0.628617 0.120899 0.683599 0.634844 0.640493 0.876498 0.705319 1.05119 
1.01327 0.817007 1.33914 -1.32695 2.44987 -3.00106 1.07821 0.96814 1.47352 
-0.65101 1.41156 -1.98468 -0.952736 1.80171 -2.48766 -0.33785 1.10974 -1.41014 
-0.0258828 0.904662 -0.798355 0.269655 0.793829 -0.193696 -1.23012 2.24731 -2.89551 
0.53037 0.771612 0.35269 0.898983 0.911462 1.12738 0.742336 0.821383 0.800491 
0.994763 1.03646 1.32183 -1.47402 2.69715 -3.20482 1.01532 1.18357 1.35768 
-0.823572 1.65553 -2.26746 -0.514649 1.3311 -1.71663 -1.11737 2.05965 -2.73986 
-0.203272 1.10255 -1.11845 0.0977783 0.966523 -0.511615 0.371436 0.917098 0.0554073 
0.601726 0.94173 0.537608 0.89835 1.11419 1.14609 0.778477 1.01887 0.905139 
-1.38291 2.50121 -3.11457 0.936324 1.27224 1.21727 -0.688754 1.55635 -2.01304 
-0.992523 1.90169 -2.53841 -0.378965 1.30382 -1.43129 -0.0754816 1.14488 -0.82925 
0.207829 1.07041 -0.249081 -1.27736 2.3144 -2.97986 0.454369 1.06976 0.262564 
0.65135 1.12634 0.669864 0.792626 1.21593 0.954307 0.872893 1.31159 1.10533 
-1.52814 2.74028 -3.31956 -0.859935 1.78548 -2.29891 -0.552702 1.50904 -1.73609 
0.862736 1.46666 1.07383 -1.15764 2.14868 -2.79764 -0.248368 1.32721 -1.1429 
0.0410256 1.23043 -0.557509 0.300786 1.20614 -0.0232295 0.516669 1.24006 0.420426 
0.680154 1.31225 0.749199 0.786016 1.40467 0.95032 -1.43121 2.5613 -3.20627 
0.788312 1.53494 0.94688 -1.02814 2.01829 -2.57425 -0.724398 1.71884 -2.03251 
-0.420141 1.51322 -1.4509 -0.127218 1.39526 -0.866213 -1.31814 2.39385 -3.04436 
0.142334 1.34993 -0.316805 0.374531 1.36164 0.157368 0.55863 1.41446 0.527016 
0.690876 1.48722 0.780227 -1.57492 2.79136 -3.41359 -0.893816 1.93361 -2.31993 
0.694057 1.62864 0.782531 -1.1928 2.25311 -2.8384 -0.590574 1.70361 -1.75256 
-0.295485 1.56391 -1.17218 0.728745 1.69401 0.821267 -0.0192196 1.49927 -0.614498 
0.582621 1.57945 0.585838 0.22594 1.49153 -0.116935 0.428302 1.52457 0.288401 
-1.47174 2.63204 -3.27553 -1.06061 2.15282 -2.59777 0.661786 1.76295 0.710311 
-0.759716 1.8994 -2.04769 0.592879 1.72057 0.605296 -0.463287 1.73652 -1.47424 
-1.35262 2.48699 -3.08936 -0.182337 1.6527 -0.913141 0.463598 1.68127 0.371342 
0.0729014 1.62786 -0.398386 0.290451 1.64331 0.0361372 -1.61293 2.85198 -3.48324 
0.578658 1.84541 0.569337 -0.927092 2.10071 -2.3352 -1.22382 2.37449 -2.86446 
-0.630653 1.91417 -1.77215 0.4826 1.81995 0.410687 -0.34624 1.80971 -1.21105 
0.336129 1.79271 0.141215 -0.0829867 1.76849 -0.683834 0.147133 1.76922 -0.225579 
0.596115 1.90118 0.569252 -1.50448 2.71556 -3.32195 0.481849 1.94023 0.40272 
-1.09191 2.30664 -2.61361 -0.797509 2.09799 -2.06541 0.535683 1.96945 0.472497 
0.364325 1.92862 0.200873 -0.510751 1.97131 -1.50755 -1.38178 2.59552 -3.11704 
-0.240972 1.91214 -0.971787 0.20274 1.9119 -0.0995592 0.000283787 1.89973 -0.49298 
-1.64093 2.92389 -3.52558 0.462534 2.04574 0.35217 -1.25267 2.51435 -2.88029 
0.374663 2.04663 0.216316 -0.962814 2.28752 -2.35186 -0.676332 2.13921 -1.80309 
-0.400497 2.05919 -1.26094 0.240138 2.04541 -0.0199562 -0.149733 2.0326 -0.765484 
0.0658692 2.03565 -0.34626 0.467266 2.08677 0.323328 -1.53025 2.81502 -3.34683 
0.369559 2.14526 0.19443 -1.12467 2.48041 -2.62797 -0.843073 2.31481 -2.09736 
-1.40803 2.72088 -3.13265 0.260162 2.1624 0.0159949 0.41119 2.15757 0.235915 
-0.561894 2.2114 -1.5515 -0.302422 2.16794 -1.04199 0.113253 2.16646 -0.245617 
-0.074445 2.16029 -0.599003 0.348306 2.22876 0.136027 -1.65772 3.00901 -3.53817 
0.265197 2.25899 0.0149248 -1.2803 2.67164 -2.88905 -1.01015 2.49781 -2.38841 
-0.725595 2.37051 -1.84381 -0.457768 2.30674 -1.32221 0.142961 2.28401 -0.189592 
-0.218188 2.28634 -0.857633 -0.0166598 2.28596 -0.476791 0.341916 2.25347 0.0837995 
-1.55113 2.93554 -3.3536 0.257577 2.33414 -0.0162815 -1.42804 2.85503 -3.13287 
-0.891488 2.53721 -2.1372 -1.17662 2.68658 -2.67419 -0.616324 2.45112 -1.60672 
0.157211 2.38188 -0.172533 -0.365566 2.41469 -1.12236 -0.150016 2.40526 -0.714141 
0.0233841 2.40138 -0.399358 0.286664 2.33058 -0.00236933 0.239287 2.38954 -0.0718747 
-1.66192 3.1103 -3.51823 0.157964 2.45729 -0.188666 -1.05876 2.71067 -2.42973 
-0.778606 2.60227 -1.89607 -0.51651 2.5466 -1.39278 -1.34236 2.87597 -2.95486 
-0.287669 2.52561 -0.959147 0.0474821 2.49855 -0.36234 -0.0991197 2.5168 -0.614386 
0.219063 2.4041 -0.150441 -1.52115 3.03494 -3.2651 0.150045 2.50545 -0.227042 
-0.94486 2.76021 -2.1903 -0.67154 2.68321 -1.66955 -1.22701 2.88779 -2.72055 
-0.429441 2.64828 -1.21129 0.0578294 2.57251 -0.359702 -0.226057 2.6314 -0.837415 
-0.0645036 2.61263 -0.55603 0.163624 2.49013 -0.230636 -1.65392 3.2128 -3.47225 
-1.39993 3.05371 -3.01962 -0.83086 2.82458 -1.95274 0.0581481 2.61904 -0.382139 
-1.11594 2.92373 -2.49068 -0.575452 2.77397 -1.4706 -0.357614 2.74751 -1.06869 
-0.180565 2.72384 -0.756774 -0.0439006 2.68579 -0.533435 0.115096 2.52185 -0.347634 
-1.53364 3.17759 -3.24805 0.0627426 2.6231 -0.400907 -0.994466 2.96903 -2.2422 
-1.29584 3.08798 -2.805 -0.725489 2.90244 -1.73651 -0.493681 2.86521 -1.30793 
-0.301431 2.8355 -0.966123 -0.0343518 2.73112 -0.539072 -0.149191 2.79492 -0.712442 
0.0638192 2.60627 -0.423033 -1.16181 3.11167 -2.53714 -0.878941 3.03238 -2.00772 
-1.63349 3.33159 -3.39708 -0.0284945 2.73982 -0.557319 -0.633869 2.98512 -1.55424 
-0.427683 2.94818 -1.18506 -0.259152 2.90409 -0.899671 -1.46844 3.2586 -3.09797 
-0.129624 2.83921 -0.698211 0.0114682 2.63033 -0.54249 -0.0286544 2.71905 -0.588354 
-1.32397 3.25098 -2.8195 -1.03356 3.15931 -2.28024 -0.776949 3.10553 -1.80527 
-0.558762 3.06282 -1.41252 -0.375225 3.01351 -1.09755 -0.117527 2.85098 -0.703529 
-0.228782 2.94705 -0.864113 -1.18402 3.28132 -2.54371 -1.60552 3.43813 -3.31197 
-0.920794 3.22329 -2.05714 -0.114022 2.83591 -0.72642 -0.693588 3.17887 -1.6464 
-0.497189 3.12489 -1.30593 -0.334501 3.05488 -1.04072 -1.46497 3.40296 -3.05298 
-0.208035 2.95967 -0.853037 -0.0732155 2.71237 -0.69992 -1.32555 3.39819 -2.78823 
-0.11567 2.80105 -0.755985 -1.06141 3.33502 -2.30248 -0.830609 3.29292 -1.8838 
-0.446968 3.16476 -1.22933 -0.304377 3.06853 -1.01025 -0.623716 3.23831 -1.52238 
-0.196548 2.94203 -0.862936 -1.19581 3.43977 -2.53533 -1.56526 3.55166 -3.2032 
-0.967813 3.40257 -2.12095 -0.284021 3.0539 -1.00158 -0.407648 3.17897 -1.17982 
-0.5641 3.27583 -1.42648 -0.753593 3.35073 -1.74446 -1.44305 3.54105 -2.97663 
-0.195242 2.89655 -0.893033 -0.160366 2.79086 -0.859537 -1.32123 3.53583 -2.75027 
-1.10347 3.50537 -2.35451 -0.271878 3.01376 -1.00876 -0.379117 3.16732 -1.15434 
-0.514861 3.28906 -1.35715 -0.885023 3.45786 -1.96885 -0.68558 3.38688 -1.63115 
-1.23735 3.60084 -2.58339 -1.51125 3.6635 -3.072 -0.231569 2.85105 -0.9876 
-0.26969 2.95733 -1.03168 -0.360103 3.13197 -1.14742 -1.01736 3.55811 -2.19419 
-0.475946 3.27635 -1.31209 -0.626755 3.39783 -1.54243 -0.809044 3.49314 -1.83888 
-1.38322 3.65819 -2.83834 -0.348517 3.07848 -1.1521 -1.15208 3.64821 -2.42287 
-0.576271 3.38241 -1.47505 -0.447141 3.2377 -1.28836 -0.930896 3.5893 -2.04333 
-0.74394 3.50508 -1.73649 -1.29762 3.7201 -2.67079 -0.302959 2.90879 -1.11333 
-0.341957 3.01211 -1.16262 -1.44824 3.7539 -2.93325 -1.05115 3.67356 -2.2444 
-0.683932 3.48768 -1.6496 -0.535239 3.34045 -1.42902 -0.427577 3.17409 -1.2817 
-0.860697 3.60428 -1.92939 -1.17012 3.74028 -2.44308 -0.631678 3.44543 -1.58132 
-0.502542 3.26907 -1.40012 -0.795799 3.58924 -1.83158 -0.412085 3.08766 -1.27951 
-0.973869 3.6888 -2.11529 -1.27401 3.79042 -2.61588 -1.38619 3.81218 -2.80745 
-0.374621 2.96585 -1.23615 -0.588768 3.37848 -1.53214 -0.732385 3.54439 -1.74139 
-1.08634 3.75899 -2.29903 -0.906196 3.67896 -2.01022 -0.477298 3.16477 -1.38433 
-1.19693 3.81339 -2.47907 -0.676775 3.47517 -1.66907 -0.554256 3.28829 -1.49707 
-0.437917 3.01699 -1.34123 -0.837815 3.63605 -1.9094 -1.31015 3.84837 -2.66477 
-1.01192 3.75032 -2.17932 -0.767247 3.5637 -1.80928 -0.631764 3.3808 -1.61619 
-0.531535 3.18673 -1.47823 -1.1261 3.80993 -2.36074 -0.940927 3.71133 -2.0721 
-0.494661 3.06529 -1.43228 -1.2329 3.85012 -2.53007 -0.708305 3.4649 -1.7324 
-0.596917 3.26528 -1.57807 -0.860631 3.63767 -1.95453 -1.05628 3.78017 -2.25042 
-0.787441 3.54369 -1.85111 -0.558601 3.12467 -1.5311 -0.660402 3.3366 -1.67345 
-1.15392 3.82014 -2.40065 -0.99761 3.7324 -2.16177 -0.927245 3.66566 -2.05807 
-0.724538 3.41168 -1.76742 -0.859704 3.58146 -1.96111 -0.619921 3.18916 -1.62231 
-1.07424 3.76163 -2.2766 -0.790615 3.48116 -1.86334 -0.68355 3.26494 -1.71418 
-0.990142 3.67479 -2.15094 -0.751812 3.35506 -1.8109 -0.910301 3.57475 -2.03523 
-0.831219 3.46593 -1.92282 
