# vtk DataFile Version 3.0
vtk output
ASCII
DATASET POLYDATA
POINTS 724 float
10.8577 -11.0872 13.0919 10.9031 -11.5586 12.8774 10.8424 -10.5541 13.4431 
10.9715 -11.9751 12.7733 10.8602 -10.055 13.8667 10.9286 -10.7279 13.5806 
11.065 -12.3527 12.7597 10.9048 -9.56768 14.3576 10.9742 -11.1255 13.4085 
10.9414 -10.2844 13.9705 11.0319 -11.4789 13.3038 11.0904 -11.8299 13.204 
11.1662 -12.6603 12.8222 10.9641 -9.84802 14.3778 10.9706 -9.09254 14.8978 
11.0202 -10.6397 13.9487 11.1763 -12.0567 13.2749 11.0829 -11.0327 13.8224 
11.0075 -9.40841 14.8406 11.0334 -10.155 14.3897 11.2774 -12.9209 12.945 
11.0577 -8.60384 15.502 11.1561 -11.4278 13.7171 11.2677 -12.3238 13.3279 
11.0644 -8.94723 15.3424 11.0622 -9.67887 14.854 11.1039 -10.4971 14.3512 
11.2528 -11.7233 13.76 11.3952 -13.1357 13.1197 11.169 -10.8672 14.2467 
11.1448 -8.18255 16.0466 11.1075 -9.18331 15.3609 11.1215 -9.98716 14.832 
11.3696 -12.5601 13.4346 11.1505 -8.6232 15.8561 11.2459 -11.1888 14.2063 
11.3539 -12.0065 13.8208 11.1836 -10.3186 14.7782 11.1537 -9.47731 15.3287 
11.2474 -7.72766 16.6443 11.5201 -13.3109 13.346 11.4783 -12.7975 13.5653 
11.3386 -11.4712 14.2403 11.2265 -8.17229 16.3763 11.2484 -10.6497 14.7097 
11.1937 -8.938 15.8358 11.2062 -9.78909 15.2841 11.4633 -12.3003 13.8965 
11.3266 -10.9526 14.6885 11.2535 -8.45538 16.3391 11.24 -9.25634 15.7912 
11.2631 -10.1094 15.2286 11.438 -11.7662 14.2778 11.6301 -13.4274 13.5759 
11.3213 -7.69752 16.9501 11.3643 -7.23111 17.2931 11.577 -12.7662 13.8655 
11.3272 -10.4266 15.1758 11.4178 -11.2447 14.7025 11.2904 -8.74743 16.3041 
11.2903 -9.57472 15.7386 11.5425 -12.1321 14.2699 11.3378 -7.94674 16.9087 
11.6851 -13.0129 13.999 11.4041 -10.7295 15.1535 11.3454 -9.8935 15.6822 
11.332 -9.05347 16.2511 11.5159 -11.5703 14.6989 11.3596 -8.22164 16.853 
11.4276 -7.29922 17.517 11.477 -6.75532 17.9009 11.7535 -13.52 13.8634 
11.6395 -12.4079 14.3241 11.4081 -10.2073 15.6341 11.4927 -11.0389 15.1415 
11.3789 -9.36606 16.1917 11.3892 -8.51927 16.7876 11.4424 -7.59772 17.4526 
11.616 -11.8611 14.7331 11.7401 -12.6557 14.4193 11.583 -6.2969 18.4664 
11.531 -6.9264 18.049 11.811 -13.1021 14.2981 11.482 -10.5168 15.6015 
11.4313 -9.68035 16.1335 11.4261 -8.83012 16.7164 11.4598 -7.93034 17.3565 
11.5888 -11.3367 15.151 11.8769 -13.5745 14.1796 11.7205 -12.1485 14.7859 
11.5419 -7.30821 17.9361 11.4916 -9.99256 16.0831 11.4865 -8.2644 17.2621 
11.4693 -9.14682 16.6454 11.5676 -10.8185 15.5889 11.6925 -11.6406 15.172 
11.637 -6.36354 18.6474 11.8322 -12.5649 14.7586 11.7037 -5.75454 19.1072 
11.5594 -7.67747 17.8191 11.92 -13.0511 14.6461 11.5208 -8.59609 17.1732 
11.5191 -9.46199 16.5818 11.5627 -10.2987 16.0484 11.6366 -6.71627 18.5154 
11.6638 -11.1282 15.5827 11.9899 -13.5918 14.4906 11.8055 -12.0245 15.1459 
11.5856 -8.0308 17.7119 11.6447 -7.08776 18.3849 11.5616 -8.92045 17.0951 
11.5777 -9.77259 16.5296 11.6458 -10.6089 16.022 11.7711 -11.4841 15.5521 
11.9198 -12.4632 15.0918 11.7444 -5.97968 19.1759 11.8118 -5.24566 19.6791 
11.6622 -7.45533 18.2603 12.0182 -12.9454 14.9984 11.6187 -8.36626 17.6212 
11.6098 -9.23748 17.0283 11.6465 -10.084 16.4858 11.7398 -6.42846 18.9874 
12.0932 -13.5816 14.7888 11.7406 -10.9438 15.9845 11.8837 -11.8722 15.5071 
11.8585 -5.34973 19.805 11.6892 -7.7974 18.1604 11.7468 -6.84369 18.8271 
11.6578 -8.69068 17.5424 11.6668 -9.55148 16.9704 11.7265 -10.4073 16.4401 
11.9948 -12.2772 15.4569 11.8449 -11.2938 15.9425 11.8457 -5.7697 19.604 
12.126 -13.1 15.1907 11.9328 -4.64487 20.319 11.7688 -7.20055 18.7163 
11.7211 -8.12783 18.0719 11.7043 -9.00895 17.4725 11.7333 -9.87002 16.9147 
11.9524 -11.647 15.9035 11.8401 -6.22031 19.4026 11.8179 -10.7378 16.3953 
12.0988 -12.5807 15.4937 12.21 -13.5412 15.141 11.9664 -4.90303 20.3347 
11.7963 -7.53957 18.6191 11.7584 -8.45101 17.992 11.8566 -6.5798 19.2874 
11.7595 -9.32654 17.4073 12.0577 -11.9607 15.9018 11.8101 -10.1917 16.8628 
11.9191 -11.069 16.3571 11.939 -5.51672 20.0092 12.223 -12.9492 15.5612 
12.0427 -4.06584 20.901 11.8273 -7.86993 18.5294 11.8802 -6.92315 19.1844 
11.8032 -8.77079 17.9174 12.1652 -12.2945 15.9021 11.8238 -9.64458 17.3467 
11.8987 -10.513 16.8186 12.0258 -11.3844 16.3409 11.9505 -5.90461 19.8805 
12.317 -13.4783 15.4788 12.0363 -4.8448 20.5831 12.0949 -4.1687 21.0281 
11.9074 -7.26022 19.0861 11.8631 -8.19519 18.4453 11.8564 -9.08901 17.8475 
11.9706 -6.26103 19.771 11.8985 -9.96183 17.2933 12.1362 -11.7094 16.3301 
11.9991 -10.8275 16.7899 12.2679 -12.535 15.9837 12.0497 -5.20167 20.4814 
12.3467 -12.9706 15.885 12.1595 -3.41013 21.5218 11.9372 -7.59268 18.9924 
11.9061 -8.51722 18.3661 11.995 -6.60938 19.6644 11.919 -9.40551 17.7842 
11.9856 -10.2759 17.252 12.1083 -11.1471 16.769 12.2469 -11.9919 16.3684 
12.0664 -5.55662 20.3732 12.4319 -13.3839 15.8587 12.1424 -4.37944 21.0938 
11.9718 -7.92192 18.9033 12.0216 -6.95339 19.5604 11.9576 -8.83669 18.2927 
11.9923 -9.72037 17.7305 12.2093 -3.59812 21.5997 12.0879 -5.91245 20.2616 
12.3604 -12.3844 16.3453 12.0858 -10.5933 17.2194 12.2217 -11.4514 16.7759 
12.1615 -4.75376 20.9963 12.4516 -12.817 16.2776 12.2668 -2.77314 22.0902 
12.0508 -7.2945 19.4597 12.0133 -8.24774 18.8196 12.1125 -6.26926 20.1484 
12.0186 -9.15422 18.227 12.0782 -10.0378 17.6851 12.1962 -10.9072 17.2034 
12.1812 -5.13737 20.878 12.3395 -11.8152 16.7554 12.2484 -3.89343 21.5988 
12.5378 -13.2696 16.2321 12.0845 -7.63082 19.3651 12.1388 -6.62701 20.0351 
12.063 -8.57097 18.7423 12.4528 -12.2217 16.7171 12.0906 -9.47339 18.1688 
12.2048 -5.52052 20.7547 12.316 -3.02904 22.1318 12.178 -10.357 17.6507 
12.3135 -11.2568 17.1751 12.2709 -4.29428 21.4934 12.55 -12.6678 16.6549 
12.3686 -2.14998 22.6182 12.1679 -6.97856 19.9284 12.1245 -7.96336 19.2766 
12.2303 -5.90827 20.6258 12.122 -8.89432 18.6717 12.2941 -4.70941 21.3644 
12.1755 -9.79626 18.1185 12.4314 -11.6405 17.1366 12.2892 -10.6988 17.6112 
12.3521 -3.39255 22.0878 12.6368 -13.1359 16.605 12.258 -6.28336 20.5062 
12.201 -7.32423 19.8286 12.3196 -5.13976 21.2195 12.1719 -8.29424 19.194 
12.5443 -12.0599 17.0876 12.1924 -9.22092 18.6073 12.3776 -3.83651 21.9659 
12.2741 -10.135 18.0669 12.4192 -2.46592 22.6321 12.4061 -11.0671 17.5659 
12.6434 -12.5106 17.0296 12.3489 -5.54485 21.0896 12.2881 -6.64717 20.3956 
12.4026 -4.33132 21.8 12.2393 -7.66634 19.7347 12.468 -1.54236 23.1123 
12.229 -8.62649 19.1167 12.2757 -9.5592 18.5434 12.5226 -11.4641 17.5155 
12.4535 -2.90903 22.5445 12.3841 -10.4933 18.012 12.7296 -12.9837 16.9798 
12.4772 -3.50268 22.3487 12.4351 -4.76927 21.6656 12.3795 -5.93054 20.971 
12.3209 -7.00405 20.2916 12.6338 -11.8888 17.4622 12.2845 -8.00739 19.646 
12.2973 -8.96641 19.0414 12.3728 -9.91255 18.478 12.499 -10.8743 17.9548 
12.5211 -1.94415 23.0908 12.7324 -12.3387 17.4087 12.5417 -2.68654 22.8445 
12.5142 -3.9675 22.2206 12.4693 -5.17666 21.5453 12.4108 -6.30432 20.8601 
12.3575 -7.35748 20.1929 12.339 -8.35216 19.5597 12.6129 -11.2782 17.8981 
12.5658 -0.962119 23.5699 12.3787 -9.31825 18.9653 12.4807 -10.2831 18.4118 
12.8165 -12.8137 17.3577 12.6012 -1.93382 23.2809 12.5862 -3.1504 22.7445 
12.5537 -4.39061 22.108 12.5028 -5.5675 21.432 12.7212 -11.704 17.8442 
12.4434 -6.67191 20.7539 12.4003 -7.71068 20.0975 12.4052 -8.70477 19.4742 
12.5926 -10.672 18.3475 12.4738 -9.68322 18.8894 12.635 -1.16475 23.6508 
12.8177 -12.1498 17.7962 12.6317 -3.57782 22.6498 12.6545 -2.33155 23.2363 
12.5917 -4.79584 21.9987 12.5354 -5.94932 21.3228 12.4783 -7.03687 20.6511 
12.4522 -8.06752 20.0035 12.7027 -11.0793 18.2883 12.4845 -9.06797 19.3888 
12.5788 -10.0626 18.8157 12.6773 -0.340854 24.0497 12.8973 -12.6282 17.7379 
12.7095 -1.46522 23.6954 12.6754 -3.99197 22.552 12.705 -2.74509 23.1663 
12.6274 -5.19103 21.891 12.8069 -11.5037 18.2367 12.5676 -6.3267 21.2161 
12.5186 -7.40148 20.5505 12.5161 -8.43152 19.9098 12.6866 -10.4571 18.7473 
12.577 -9.44257 19.3052 12.751 -0.633542 24.0945 12.8998 -11.9424 18.1962 
12.7697 -1.87136 23.6567 12.7539 -3.16039 23.0849 12.716 -4.39858 22.451 
12.6609 -5.58061 21.7845 12.6008 -6.70225 21.1109 12.5681 -7.76947 20.4505 
12.7919 -10.8663 18.6878 12.593 -8.80465 19.8173 12.6781 -9.82916 19.2263 
12.9714 -12.4297 18.1177 12.7879 0.228287 24.4853 12.8236 -0.993524 24.1034 
12.8252 -2.29409 23.5927 12.8 -3.57479 22.9953 12.8909 -11.2876 18.641 
12.7534 -4.79955 22.3487 12.6927 -5.96714 21.6787 12.6388 -7.07758 21.0068 
12.6298 -8.14348 20.3512 12.7807 -10.2281 19.1556 12.682 -9.18742 19.7281 
12.8662 -0.121681 24.5091 12.9787 -11.7157 18.6121 12.8877 -1.41014 24.0656 
12.8775 -2.71863 23.5168 12.8424 -3.98592 22.901 12.7875 -5.19717 22.2458 
12.7244 -6.35238 21.573 12.6862 -7.45568 20.903 12.8799 -10.6385 19.0974 
12.7039 -8.5255 20.2535 12.7777 -9.5796 19.6457 13.0372 -12.2233 18.49 
12.9003 0.756079 24.8918 12.9401 -0.51964 24.5011 12.9473 -1.84082 24.0072 
12.926 -3.14132 23.4335 12.8811 -4.39388 22.8043 12.9723 -11.0567 19.0573 
12.8188 -5.59232 22.1423 12.7607 -6.73751 21.4673 12.7456 -7.83891 20.7997 
12.8733 -9.98097 19.5741 12.788 -8.91463 20.1605 13.0937 -12.0158 18.8447 
12.8768 -9.31029 20.0763 12.8163 -8.228 20.699 12.8061 -7.12486 21.3616 
12.8494 -5.98651 22.0378 13.0077 -0.950209 24.463 13.0028 -2.27284 23.9382 
12.9155 -4.79927 22.7061 12.9706 -3.56012 23.346 12.9827 0.369185 24.9032 
12.9646 -10.3888 19.5189 13.0542 -11.4719 19.0464 12.8946 -8.62154 20.6044 
12.9642 -9.7112 20.0056 12.8629 -7.51586 21.2567 12.884 -6.38084 21.9324 
12.9461 -5.20244 22.6064 13.0481 -10.796 19.4884 13.0104 -3.97546 23.2563 
13.0543 -2.7016 23.8633 13.0713 -1.38873 24.4102 13.0588 -0.0538578 24.8864 
13.016 1.24706 25.2787 13.1456 -11.7927 19.2076 12.9755 -9.01873 20.5203 
12.9294 -7.91052 21.1551 13.0459 -10.1118 19.9558 12.9274 -6.77657 21.8267 
12.9755 -5.60534 22.5045 13.0446 -4.38755 23.1646 13.1007 -3.12617 23.7848 
13.1306 -1.82577 24.35 13.1301 -0.496227 24.8494 13.1219 -11.181 19.5028 
13.1022 0.839773 25.2838 13.0013 -8.30713 21.0608 13.0536 -9.41623 20.4526 
12.9813 -7.17394 21.7224 13.0087 -6.00807 22.4013 13.0741 -4.79926 23.0694 
[...]
POINT_DATA 724
VECTORS velocity double
0.99342 -0.637905 1.0895 0.888341 -0.260162 0.990119 1.10436 -1.08262 1.18547 
0.788908 0.0600255 0.88401 1.20042 -1.50937 1.26718 1.02731 -0.920945 1.05268 
0.691683 0.339406 0.766526 1.28613 -1.9247 1.34704 0.932601 -0.588301 0.949038 
1.10536 -1.29004 1.10876 0.844945 -0.300508 0.849641 0.761344 -0.0257771 0.759607 
0.604087 0.561812 0.646611 1.18211 -1.65627 1.1778 1.36096 -2.31381 1.43201 
0.991853 -0.970073 0.942645 0.686897 0.155256 0.649064 0.889581 -0.6356 0.815602 
1.25281 -2.01636 1.25198 1.07215 -1.3668 1.00313 0.520303 0.748785 0.518624 
1.42828 -2.68002 1.53388 0.788278 -0.309978 0.693608 0.606024 0.360289 0.535335 
1.32584 -2.37767 1.35288 1.14969 -1.75413 1.0794 0.962836 -1.05614 0.840045 
0.693681 -0.0642916 0.557288 0.439497 0.904965 0.382181 0.861537 -0.736305 0.704565 
1.47916 -2.95496 1.63926 1.22941 -2.14381 1.18308 1.0422 -1.46414 0.906208 
0.525397 0.541411 0.411141 1.34106 -2.5777 1.37604 0.76762 -0.461128 0.575525 
0.601782 0.165629 0.423175 0.936307 -1.162 0.743677 1.12341 -1.86512 1.00183 
1.5279 -3.19859 1.77489 0.358497 1.03802 0.232593 0.441146 0.72076 0.277598 
0.674222 -0.218575 0.437791 1.40425 -2.86556 1.51313 0.83767 -0.869167 0.599919 
1.2182 -2.27583 1.15225 1.01607 -1.57413 0.823585 0.506515 0.397497 0.28348 
0.742299 -0.602421 0.459553 1.29415 -2.60379 1.30152 1.10228 -1.97746 0.946154 
0.911284 -1.28092 0.655591 0.579137 0.027188 0.299652 0.28915 1.13406 0.094936 
1.46209 -3.11057 1.67496 1.57528 -3.39306 1.94916 0.39114 0.730628 0.145627 
0.810718 -0.995553 0.499567 0.646128 -0.347397 0.316273 1.18165 -2.33167 1.0897 
0.991194 -1.68259 0.754121 0.476786 0.313579 0.164157 1.36455 -2.89219 1.47669 
0.303389 0.914091 0.0067132 0.712048 -0.724592 0.34799 0.884128 -1.39106 0.574651 
1.07027 -2.05127 0.884234 0.547017 -0.0752028 0.175361 1.26083 -2.65226 1.26851 
1.48315 -3.22688 1.79229 1.61607 -3.50559 2.13811 0.212599 1.22189 -0.0663459 
0.390374 0.527701 0.0398417 0.780544 -1.10673 0.405885 0.612666 -0.453721 0.198324 
0.960566 -1.76685 0.687042 1.15179 -2.39194 1.05378 1.36886 -2.98605 1.54815 
0.453667 0.164754 0.0391313 0.30524 0.718938 -0.0901545 1.65188 -3.54664 2.33472 
1.49603 -3.27774 1.91055 0.220161 1.00886 -0.166621 0.678717 -0.829133 0.243803 
0.852972 -1.48206 0.498999 1.041 -2.11917 0.840664 1.24966 -2.72217 1.29512 
0.515927 -0.197588 0.0534992 0.136615 1.29112 -0.235043 0.360464 0.395914 -0.0977959 
1.35847 -3.00691 1.60025 0.747748 -1.20054 0.320217 1.13135 -2.45031 1.05053 
0.930363 -1.83965 0.633466 0.578832 -0.561771 0.0874454 0.418337 0.0569131 -0.0908469 
1.56606 -3.37764 2.18781 0.254694 0.699651 -0.230841 1.68952 -3.51377 2.57532 
1.22876 -2.73729 1.31331 0.157812 1.01937 -0.326542 1.0148 -2.17378 0.816402 
0.821417 -1.55959 0.435165 0.644688 -0.925813 0.149429 1.44897 -3.17839 1.90341 
0.478883 -0.294342 -0.065358 0.0676624 1.33896 -0.394677 0.313056 0.355853 -0.233199 
1.10493 -2.46784 1.0472 1.32245 -2.94717 1.60545 0.900951 -1.89703 0.594434 
0.714745 -1.28269 0.246416 0.542326 -0.652111 -0.0158047 0.375092 -0.00291436 -0.215496 
0.205994 0.674768 -0.36594 1.56788 -3.30235 2.31978 1.71963 -3.40961 2.79816 
1.19638 -2.7021 1.31668 0.105184 0.996734 -0.474284 0.986093 -2.20025 0.799893 
0.790015 -1.62226 0.384416 0.609493 -1.0068 0.0653235 1.42912 -3.09908 1.96569 
0.00570206 1.37002 -0.542677 0.439192 -0.367744 -0.175816 0.271143 0.298654 -0.357339 
1.63201 -3.24116 2.63203 1.07523 -2.45488 1.04915 1.29437 -2.87691 1.63547 
0.870841 -1.93327 0.566987 0.681361 -1.34857 0.184522 0.504858 -0.726588 -0.109049 
0.170441 0.596574 -0.486954 0.337803 -0.0819475 -0.326511 1.51815 -3.12656 2.31859 
0.0246893 1.1254 -0.618426 1.74707 -3.20566 3.04299 1.16992 -2.65332 1.34525 
0.957192 -2.20426 0.795721 0.758549 -1.66651 0.346335 0.574336 -1.07314 -0.00674559 
0.240343 0.195637 -0.465624 1.38655 -2.96033 1.97157 0.402604 -0.447731 -0.27354 
0.0821213 0.820344 -0.611732 -0.0633443 1.39173 -0.711858 1.63528 -3.05206 2.7873 
1.04962 -2.42495 1.07235 0.841716 -1.95056 0.554318 1.26462 -2.7742 1.67391 
0.648646 -1.39881 0.13624 0.150469 0.438113 -0.594306 0.469608 -0.79859 -0.188165 
0.303883 -0.176103 -0.426869 1.48962 -2.96649 2.362 -0.0248683 1.08105 -0.763699 
1.7638 -2.93905 3.24749 0.931733 -2.19067 0.811376 1.14532 -2.57805 1.38991 
0.728835 -1.69456 0.32431 0.0592851 0.684984 -0.721004 0.541194 -1.13096 -0.0633742 
0.368029 -0.529049 -0.358493 0.209654 0.0779284 -0.570134 1.36532 -2.81648 2.04548 
-0.126027 1.40019 -0.868443 1.57016 -2.86027 2.70548 1.67677 -2.77116 3.07798 
1.02718 -2.37184 1.11441 0.816001 -1.95114 0.561169 0.618492 -1.43691 0.105341 
1.24611 -2.65475 1.74977 0.436414 -0.865072 -0.252209 0.116036 0.33084 -0.70843 
0.269901 -0.26929 -0.518187 -0.022829 0.86925 -0.846909 1.45799 -2.75276 2.41785 
-0.105925 1.14509 -0.935675 1.76956 -2.57097 3.42884 0.910004 -2.15618 0.846955 
0.702608 -1.70766 0.321883 1.12815 -2.48168 1.46192 0.510689 -1.17884 -0.102642 
0.334308 -0.603638 -0.430597 0.173116 -0.0120833 -0.671022 0.0267773 0.551709 -0.843215 
1.34573 -2.63525 2.1309 -0.193104 1.3984 -1.03795 1.57005 -2.61301 2.8456 
0.794087 -1.93248 0.58812 1.01051 -2.29647 1.17983 0.591569 -1.46124 0.09352 
0.404955 -0.920982 -0.300651 1.67255 -2.42748 3.21984 1.23171 -2.50367 1.84215 
-0.0720907 0.829267 -0.978147 0.233907 -0.344069 -0.600576 0.0787296 0.230533 -0.817996 
1.45682 -2.52581 2.55501 -0.163212 1.11016 -1.08841 1.76018 -2.16238 3.5442 
0.89295 -2.09926 0.903366 0.679956 -1.70266 0.339178 1.11576 -2.35673 1.55216 
0.482552 -1.21243 -0.124578 0.30067 -0.662409 -0.490092 0.135463 -0.0908712 -0.76261 
1.34304 -2.4345 2.25951 -0.0210688 0.502377 -0.965565 1.56501 -2.32029 2.96662 
-0.255859 1.38739 -1.19739 0.776227 -1.8919 0.634853 0.997875 -2.19369 1.26182 
0.567609 -1.46766 0.100168 -0.121627 0.78817 -1.10584 0.374731 -0.960234 -0.334202 
1.22736 -2.32848 1.96078 1.66063 -2.05325 3.31943 0.198032 -0.405119 -0.670746 
0.0342273 0.178529 -0.92316 1.45361 -2.26286 2.67857 -0.218917 1.08044 -1.2308 
1.73541 -1.72823 3.59279 0.879689 -2.01607 0.976702 0.660736 -1.67611 0.375118 
1.10836 -2.20498 1.65607 0.456474 -1.22721 -0.130137 1.33962 -2.20104 2.37944 
0.267999 -0.705165 -0.535567 -0.0685954 0.460988 -1.0793 0.0946399 -0.138606 -0.846773 
1.55515 -1.99443 3.06186 -0.315408 1.36881 -1.34865 0.988904 -2.06293 1.35626 
0.761832 -1.82598 0.698393 1.2197 -2.12335 2.06404 0.546322 -1.45251 0.123804 
-0.171681 0.753838 -1.22778 0.346155 -0.981101 -0.352547 1.44528 -1.97217 2.77593 
0.161346 -0.442913 -0.73074 1.63767 -1.6564 3.36793 -0.00984282 0.138614 -1.01812 
-0.27278 1.05069 -1.36458 1.09972 -2.02169 1.75472 0.869582 -1.90489 1.06281 
1.32479 -1.9484 2.4544 0.644555 -1.62503 0.427262 1.69508 -1.28276 3.57496 
0.432756 -1.22135 -0.119594 0.236026 -0.727318 -0.568594 -0.115293 0.42636 -1.18392 
1.53571 -1.65204 3.11376 0.0548055 -0.172745 -0.919131 -0.372072 1.34397 -1.49169 
1.41567 -1.69383 2.79318 1.20604 -1.88898 2.14504 0.980186 -1.90075 1.45209 
0.750339 -1.73278 0.775159 -0.220577 0.721186 -1.34174 0.52785 -1.41409 0.163278 
0.319408 -0.981531 -0.356627 0.126399 -0.465974 -0.777193 -0.0523851 0.106994 -1.10169 
1.59966 -1.25781 3.35412 -0.324513 1.01865 -1.48971 1.48572 -1.3892 3.05297 
1.30112 -1.672 2.49767 1.08836 -1.80712 1.84299 0.860558 -1.76307 1.15423 
0.631085 -1.54773 0.492941 0.41157 -1.19354 -0.0941296 -0.160155 0.395321 -1.27795 
1.64113 -0.84643 3.49683 0.206468 -0.733088 -0.586696 0.0171813 -0.196768 -0.977996 
-0.425955 1.31437 -1.62588 1.52497 -1.06031 3.20826 1.37932 -1.38697 2.78809 
1.18816 -1.626 2.20899 0.970532 -1.70716 1.54416 -0.267666 0.689188 -1.44628 
0.74042 -1.61008 0.859821 0.512103 -1.35122 0.216632 0.295635 -0.96332 -0.344999 
-0.0925132 0.0814636 -1.17234 0.0942643 -0.476597 -0.808456 1.56287 -0.751299 3.32875 
-0.374131 0.984849 -1.60565 1.27415 -1.36798 2.52545 1.43359 -1.04903 2.99375 
1.0747 -1.56309 1.92035 0.851703 -1.5904 1.2463 0.619734 -1.44286 0.568736 
0.393495 -1.14401 -0.0535646 -0.202769 0.36776 -1.36024 0.180227 -0.723633 -0.588479 
-0.0175779 -0.211621 -1.02212 1.56642 -0.376786 3.34773 -0.47691 1.28196 -1.74991 
1.47464 -0.683577 3.1358 1.1676 -1.3367 2.25808 1.34044 -1.04706 2.7698 
0.959643 -1.48371 1.62931 -0.312797 0.658875 -1.54034 0.731471 -1.45749 0.948581 
0.499074 -1.26311 0.282353 0.275371 -0.926395 -0.31712 -0.129908 0.0627115 -1.22909 
0.065501 -0.474815 -0.823483 1.49245 -0.327392 3.19045 -0.421835 0.950863 -1.71185 
1.38929 -0.683088 2.94155 1.24385 -1.04058 2.53429 1.05876 -1.29232 1.98431 
0.842388 -1.3877 1.3349 0.610187 -1.30975 0.651929 0.37867 -1.07178 0.00132176 
-0.242976 0.345417 -1.42979 0.157683 -0.69814 -0.573411 -0.0490131 -0.216421 -1.05043 
-0.524538 1.24879 -1.8621 1.48263 0.0481043 3.15366 1.41498 -0.30575 3.02406 
1.30205 -0.693389 2.7381 1.14356 -1.0255 2.28732 -0.355946 0.632693 -1.6229 
0.946913 -1.23243 1.70342 0.722946 -1.27538 1.03756 0.488516 -1.14861 0.358227 
0.258685 -0.869143 -0.273473 -0.164281 0.0524086 -1.27097 0.0405541 -0.459526 -0.821414 
1.41639 0.0668122 3.01858 -0.467978 0.919548 -1.80777 1.33751 -0.318512 2.85409 
1.21104 -0.700523 2.52216 1.03946 -0.998184 2.02952 0.83187 -1.15638 1.41556 
0.601841 -1.14786 0.738802 0.366887 -0.975151 0.0687794 -0.280467 0.330338 -1.48539 
0.139028 -0.654836 -0.541498 -0.0765228 -0.210134 -1.06156 -0.567944 1.21698 -1.95997 
1.39155 0.432865 2.92589 1.34844 0.0620229 2.87917 1.2569 -0.338861 2.67303 
1.11582 -0.699484 2.2933 0.931288 -0.956284 1.76113 -0.397106 0.613758 -1.69308 
0.714005 -1.06429 1.12215 0.479931 -1.00657 0.441083 0.245517 -0.789626 -0.215321 
-0.194477 0.0506694 -1.29542 0.0198253 -0.429031 -0.801539 -0.606004 1.18824 -2.04121 
-0.0994977 -0.191198 -1.0541 0.124361 -0.591514 -0.493216 0.357683 -0.852326 0.146 
0.59393 -0.95715 0.825007 1.27871 0.0378944 2.73344 1.17185 -0.356026 2.47807 
0.81915 -0.898741 1.48303 1.01619 -0.686689 2.05179 1.33401 0.432343 2.81622 
-0.313238 0.32075 -1.52276 -0.513401 0.89603 -1.89352 0.00353313 -0.380847 -0.763691 
-0.219579 0.0586346 -1.30009 0.235525 -0.685498 -0.144759 0.472471 -0.836089 0.526548 
0.703709 -0.825955 1.19723 -0.432239 0.595513 -1.74277 0.911899 -0.659847 1.79771 
1.08202 -0.364985 2.26884 1.20479 0.0103691 2.57482 1.27521 0.411877 2.70368 
1.29473 0.780076 2.67323 -0.641299 1.16123 -2.11127 -0.117584 -0.15694 -1.02725 
0.113478 -0.505451 -0.430102 -0.340184 0.317678 -1.53879 0.350338 -0.701878 0.22909 
0.585392 -0.738575 0.905098 0.803367 -0.618476 1.53251 0.987216 -0.362755 2.04535 
1.12567 -0.0124734 2.40088 1.21307 0.380455 2.58172 -0.550077 0.864837 -1.95362 
1.24572 0.769547 2.58806 -0.0085439 -0.311582 -0.709105 -0.239301 0.0795797 -1.28389 
0.228085 -0.554661 -0.0651941 0.465148 -0.637353 0.609482 0.690849 -0.563303 1.25696 
0.88759 -0.347366 1.80851 -0.460712 0.580824 -1.7691 1.04123 -0.0266855 2.21152 
1.1455 0.350053 2.44444 1.19599 0.740157 2.5018 1.19332 1.09242 2.40234 
-0.675494 1.13522 -2.17201 -0.131013 -0.10331 -0.981826 0.105696 -0.393563 -0.355285 
-0.361502 0.326228 -1.53298 0.343863 -0.522881 0.313219 0.574885 -0.493994 0.972952 
0.783001 -0.319947 1.55798 0.951954 -0.0299027 2.00818 1.07205 0.326124 2.29052 
1.14109 0.705674 2.40227 -0.582329 0.846945 -1.99434 1.15147 1.08159 2.33658 
-0.0170431 -0.217534 -0.640506 -0.254177 0.118799 -1.24804 0.222173 -0.395279 0.0186341 
0.456604 -0.411309 0.683731 0.673862 -0.279679 1.29515 -0.484823 0.581354 -1.77616 
0.857066 -0.024606 1.78899 1.07922 0.676304 2.28407 0.993688 0.313539 2.1222 
1.11174 1.04529 2.27805 -0.706501 1.11336 -2.21717 1.08753 1.37393 2.11664 
-0.140532 -0.0258351 -0.920641 0.0999928 -0.253277 -0.273359 -0.378505 0.353717 -1.50844 
0.336965 -0.315752 0.392268 0.560943 -0.226368 1.02237 0.756665 -0.00803442 1.55453 
0.909616 0.303926 1.93786 1.06355 1.00855 2.19951 1.01182 0.66318 2.14932 
-0.609107 0.841391 -2.01352 1.04975 1.37472 2.0594 -0.0230591 -0.0953052 -0.562435 
-0.265201 0.181524 -1.19583 0.216507 -0.206922 0.100713 0.44531 -0.160425 0.742686 
0.651303 0.020124 1.30636 -0.504137 0.599259 -1.76322 0.819405 0.302442 1.73648 
0.939052 0.645599 2.00051 1.00692 1.00261 2.0946 1.02489 1.31735 2.0424 
-0.732635 1.0993 -2.24171 -0.147262 0.0794372 -0.848093 0.0950057 -0.0831402 -0.19036 
0.976532 1.6297 1.81629 -0.391293 0.403478 -1.46612 0.32802 -0.0819879 0.459336 
0.541897 0.0602513 1.04708 0.723226 0.311109 1.5186 0.859835 0.632437 1.83427 
0.945896 0.981709 1.98093 0.979996 1.32247 1.96459 -0.629937 0.850253 -2.00975 
0.948842 1.59084 1.80213 -0.272978 0.271243 -1.13017 -0.0279148 0.0572031 -0.480705 
0.209271 0.00988715 0.173612 0.429513 0.11199 0.779673 -0.518438 0.637422 -1.73017 
0.621842 0.330621 1.28622 0.77396 0.626832 1.6499 0.877896 0.961991 1.84964 
0.932246 1.29776 1.88835 -0.752645 1.0972 -2.24187 -0.152436 0.215318 -0.76945 
0.905265 1.57441 1.74424 -0.400146 0.478838 -1.40788 0.0888543 0.11702 -0.113941 
0.314921 0.175911 0.506636 0.876935 1.83103 1.54766 0.516299 0.360727 1.04208 
0.875562 1.27352 1.79159 0.681879 0.631187 1.44843 0.802589 0.94773 1.69916 
-0.644642 0.877407 -1.98244 -0.278661 0.391261 -1.05586 0.853458 1.80426 1.54181 
-0.0336243 0.241326 -0.403105 0.856768 1.54976 1.67587 0.198155 0.253313 0.228819 
-0.527956 0.699468 -1.67858 0.407444 0.401517 0.788552 0.810514 1.25453 1.67371 
0.584741 0.645634 1.23267 0.720437 0.942407 1.53006 -0.765473 1.1117 -2.21477 
0.818388 1.78238 1.50826 -0.15813 0.38388 -0.692587 -0.406161 0.583545 -1.33821 
0.0788677 0.346287 -0.0536239 0.800463 1.53076 1.58657 0.295548 0.45369 0.526775 
0.737981 1.24498 1.53555 0.48342 0.669359 1.00485 0.632567 0.94691 1.34486 
0.776408 2.01171 1.27827 -0.653273 0.92768 -1.93206 0.772756 1.7678 1.44818 
-0.284366 0.54452 -0.980679 -0.0431997 0.456998 -0.34014 0.757254 1.99177 1.28281 
0.736555 1.52238 1.47578 0.180444 0.519442 0.257144 -0.533822 0.789506 -1.61293 
0.378171 0.701883 0.765811 0.659338 1.24579 1.38004 0.540092 0.960126 1.14633 
-0.770261 1.14811 -2.15862 0.728975 1.97224 1.26652 -0.411471 0.721029 -1.2648 
0.717868 1.7649 1.36274 -0.167549 0.58623 -0.628387 0.0614796 0.601403 -0.0209477 
0.269085 0.744928 0.516193 0.666249 1.5257 1.34623 0.443075 0.979509 0.934871 
0.576092 1.25538 1.21088 0.676831 2.17189 1.01377 -0.656776 1.00746 -1.86176 
0.684918 1.97164 1.20929 -0.292979 0.732663 -0.914652 -0.0617497 0.702216 -0.307317 
-0.538678 0.911094 -1.54245 0.655487 1.77449 1.25569 0.6598 2.16243 1.02161 
0.155629 0.801375 0.255446 0.341552 1.00639 0.710716 0.591629 1.53887 1.20302 
0.488338 1.26814 1.02909 0.637917 2.14794 1.0196 -0.766196 1.21247 -2.07239 
0.630325 1.98699 1.12279 -0.41758 0.891932 -1.19434 -0.189011 0.823048 -0.600314 
0.0371464 0.874034 -0.0171353 0.235207 1.04283 0.473435 0.588244 1.7976 1.1323 
0.395797 1.28536 0.83401 0.513153 1.55133 1.04948 0.578044 2.315 0.754141 
-0.657314 1.12574 -1.7776 0.593927 2.16212 0.960727 -0.540518 1.05768 -1.4669 
-0.0866988 0.965013 -0.301452 -0.320064 0.963561 -0.898519 0.1233 1.09218 0.221859 
0.568853 2.02314 1.01188 0.297998 1.30875 0.624626 0.43022 1.56519 0.883943 
0.51826 1.81544 1.00286 0.558991 2.32185 0.751813 0.54835 2.30393 0.77736 
-0.752445 1.31313 -1.95531 0.536156 2.21217 0.853792 -0.215799 1.07508 -0.596416 
0.00502128 1.1566 -0.0453184 0.194604 1.34101 0.400282 -0.455847 1.1189 -1.20514 
0.341963 1.58182 0.704393 0.506207 2.04926 0.901315 0.444605 1.83185 0.864115 
0.479268 2.44426 0.497779 -0.613887 1.24798 -1.58551 0.494452 2.36204 0.672264 
-0.120391 1.23733 -0.329342 0.0848345 1.38417 0.159486 -0.350637 1.20203 -0.90304 
0.248054 1.60417 0.509824 0.480038 2.24621 0.758297 0.366118 1.84697 0.713617 
0.440717 2.07307 0.784122 0.466319 2.44763 0.523486 -0.732298 1.43714 -1.83078 
-0.496468 1.32628 -1.24021 -0.0319699 1.43924 -0.0989945 0.443855 2.40216 0.589061 
-0.254443 1.33388 -0.633509 0.148007 1.63392 0.299177 0.282031 1.86532 0.548702 
0.371507 2.09118 0.659643 0.421426 2.27996 0.656576 0.394029 2.54575 0.279546 
-0.614943 1.43053 -1.51488 0.409699 2.50572 0.426865 -0.156467 1.50534 -0.376578 
-0.401953 1.43975 -0.970755 0.0415328 1.67186 0.0718888 0.19204 1.88783 0.368578 
0.297079 2.10984 0.522534 0.390129 2.44689 0.495013 0.360808 2.30362 0.554517 
0.378961 2.56329 0.289759 -0.289135 1.57779 -0.674938 -0.0714276 1.7178 -0.172102 
-0.704347 1.60502 -1.68798 0.353213 2.56722 0.318764 0.0959134 1.91688 0.172481 
0.216655 2.12998 0.37086 0.295534 2.32652 0.441982 -0.550625 1.57967 -1.30448 
0.337084 2.47736 0.411337 0.307509 2.63984 0.0614914 0.311991 2.64279 0.138818 
-0.423679 1.66443 -0.978088 -0.189695 1.76832 -0.430301 -0.00586749 1.95197 -0.0384743 
0.129915 2.15508 0.203058 0.224585 2.3474 0.317314 0.305185 2.60594 0.247464 
0.280068 2.50731 0.318832 -0.309738 1.82696 -0.694548 -0.675639 1.77722 -1.56325 
-0.112112 1.99129 -0.261645 0.267215 2.69063 0.0757107 0.0371115 2.18644 0.0194497 
0.146925 2.37168 0.176175 0.218402 2.53147 0.219375 -0.547006 1.80382 -1.24596 
0.253716 2.64633 0.165801 0.235574 2.71163 -0.116728 -0.428049 1.89871 -0.955646 
0.229721 2.73445 -0.0805901 -0.220191 2.03444 -0.491366 -0.0608572 2.22099 -0.17761 
0.149779 2.55782 0.103551 0.200532 2.67601 0.0888123 0.062674 2.40253 0.0178257 
0.218245 2.74225 -0.00734836 -0.328099 2.08368 -0.722947 -0.64189 1.98549 -1.43738 
-0.162979 2.25814 -0.38607 0.1736 2.77794 -0.0616821 0.140406 2.70707 -0.00425096 
0.0745276 2.58973 -0.0298146 -0.0273971 2.43683 -0.155265 -0.53408 2.04983 -1.18044 
0.173417 2.79814 -0.197791 0.160482 2.78077 -0.299045 -0.433731 2.13931 -0.951063 
-0.268386 2.2969 -0.604017 0.140731 2.8388 -0.21938 0.120835 2.81642 -0.136016 
0.0737961 2.74345 -0.115601 -0.122079 2.47002 -0.33988 -0.00719437 2.62575 -0.179465 
-0.377644 2.33886 -0.832601 -0.604475 2.22335 -1.32235 0.0984708 2.83395 -0.44612 
0.102454 2.86617 -0.378363 0.0941721 2.88603 -0.278529 -0.221496 2.50172 -0.536532 
0.0617847 2.86032 -0.231262 0.00126998 2.78019 -0.240594 -0.0936547 2.66099 -0.340737 
-0.497759 2.31413 -1.08584 0.0644899 2.9197 -0.417082 -0.327044 2.52632 -0.747497 
-0.000799123 2.89977 -0.332226 0.0400436 2.93885 -0.368034 -0.182266 2.69079 -0.507891 
-0.0783888 2.81831 -0.382197 -0.444582 2.5218 -0.983463 0.0359772 2.88473 -0.5904 
0.034166 2.92529 -0.545567 -0.568184 2.45679 -1.23649 -0.273156 2.71264 -0.6809 
-0.0701111 2.93549 -0.445266 -0.0136023 2.9837 -0.450777 0.0105234 2.97927 -0.516872 
-0.161839 2.85536 -0.534432 -0.365274 2.71409 -0.855561 -0.071525 3.02045 -0.534434 
-0.0354263 3.02837 -0.588083 -0.1481 2.97661 -0.581833 -0.0194751 2.98038 -0.654799 
-0.24535 2.88067 -0.686586 -0.450422 2.7144 -1.02099 -0.538055 2.65174 -1.18664 
-0.0264514 2.93373 -0.729294 -0.0825976 3.07074 -0.644576 -0.137297 3.05746 -0.638762 
-0.330914 2.89147 -0.841932 -0.229712 3.01396 -0.728573 -0.0654119 3.03072 -0.738687 
-0.418014 2.88706 -1.00048 -0.137697 3.11144 -0.725806 -0.0997618 3.08318 -0.760655 
-0.0807087 2.97567 -0.844429 -0.213318 3.09779 -0.770267 -0.50663 2.84794 -1.15845 
-0.30859 3.03007 -0.865472 -0.196959 3.14498 -0.81509 -0.148696 3.13003 -0.833214 
-0.122834 3.06537 -0.875621 -0.394488 3.02272 -1.01003 -0.293475 3.13176 -0.913311 
-0.127816 3.01254 -0.938552 -0.478817 3.00178 -1.15453 -0.197502 3.16776 -0.90304 
-0.166412 3.11122 -0.944193 -0.267628 3.17985 -0.936858 -0.37284 3.11949 -1.02924 
-0.248212 3.19618 -0.972315 -0.178159 3.05359 -1.031 -0.209034 3.14996 -1.0087 
-0.453031 3.11584 -1.16654 -0.361675 3.18529 -1.07093 -0.334757 3.21372 -1.07619 
-0.24826 3.18334 -1.05781 -0.312998 3.22286 -1.09471 -0.222485 3.09283 -1.10254 
-0.427921 3.18971 -1.18601 -0.289468 3.20904 -1.10825 -0.263629 3.13297 -1.15767 
-0.400528 3.22759 -1.20598 -0.302034 3.17319 -1.19575 -0.372134 3.23148 -1.21792 
-0.339997 3.21091 -1.21652 
