# vtk DataFile Version 3.0
vtk output
ASCII
DATASET POLYDATA
POINTS 724 float
11.147 -11.363 13.3188 11.1708 -11.7216 13.0796 11.1533 -10.9641 13.694 
11.218 -12.0433 12.9489 11.1884 -10.5954 14.1392 11.2226 -11.0967 13.7972 
11.2901 -12.3395 12.9053 11.2471 -10.2369 14.6537 11.2493 -11.3964 13.5987 
11.2493 -10.7669 14.2021 11.2888 -11.6657 13.4688 11.3298 -11.9355 13.3463 
11.3719 -12.5834 12.9368 11.2848 -10.4436 14.6294 11.3239 -9.88497 15.2225 
11.3047 -11.0328 14.1374 11.3995 -12.1124 13.3888 11.3469 -11.329 13.9784 
11.3391 -10.1169 15.1164 11.3315 -10.6709 14.5959 11.4642 -12.792 13.0262 
11.4196 -9.51563 15.8652 11.3993 -11.6296 13.842 11.4731 -12.3217 13.4127 
11.4067 -9.77063 15.6531 11.3726 -10.3156 15.0844 11.3799 -10.9261 14.515 
11.4758 -11.8568 13.8502 11.5635 -12.9649 13.1651 11.4248 -11.2044 14.3753 
11.5126 -9.18726 16.4534 11.43 -9.94294 15.6265 11.4103 -10.5435 15.0168 
11.5571 -12.5082 13.4875 11.4917 -9.51789 16.185 11.4825 -11.4481 14.302 
11.5572 -12.0761 13.8769 11.4512 -10.7901 14.9204 11.4551 -10.1595 15.5455 
11.6206 -8.81857 17.1105 11.6699 -13.1062 13.3522 11.6469 -12.6963 13.5837 
11.5555 -11.6636 14.3011 11.5764 -9.16304 16.759 11.4964 -11.0382 14.8143 
11.5101 -9.74932 16.1036 11.4862 -10.3902 15.4534 11.6457 -12.3052 13.9171 
11.5552 -11.2666 14.7571 11.5813 -9.37329 16.6622 11.5334 -9.98474 16.0029 
11.5224 -10.6283 15.3533 11.6348 -11.8901 14.3036 11.7639 -13.2002 13.5461 
11.6789 -8.77428 17.4013 11.7433 -8.39573 17.8394 11.7341 -12.6717 13.8503 
11.5665 -10.8654 15.2595 11.6265 -11.4883 14.7349 11.5957 -9.59006 16.5684 
11.5618 -10.2209 15.8983 11.7176 -12.1735 14.2611 11.6758 -8.96266 17.3023 
11.8223 -12.8672 13.9477 11.6236 -11.0929 15.198 11.5958 -10.4582 15.7936 
11.6154 -9.81812 16.4586 11.7041 -11.7372 14.6953 11.6769 -9.17059 17.1865 
11.7864 -8.42585 18.0305 11.862 -7.96796 18.5375 11.8697 -13.2743 13.7916 
11.7957 -12.3886 14.2834 11.6381 -10.6925 15.7007 11.692 -11.3269 15.1477 
11.6409 -10.0514 16.345 11.685 -9.39556 17.0595 11.7781 -8.65744 17.8929 
11.7844 -11.9609 14.695 11.8773 -12.5828 14.3453 11.9747 -7.53363 19.1999 
11.8906 -8.08251 18.6288 11.9292 -12.9371 14.2027 11.6918 -10.9248 15.6257 
11.6722 -10.2862 16.2356 11.7002 -9.63023 16.9278 11.7718 -8.91595 17.7207 
11.7682 -11.5535 15.1204 11.9757 -13.3171 14.0643 11.8689 -12.1834 14.713 
11.8735 -8.38921 18.4192 11.7118 -10.5198 16.137 11.7752 -9.17381 17.5539 
11.7219 -9.86883 16.7988 11.7572 -11.1523 15.5728 11.8515 -11.7864 15.1047 
12.0106 -7.56005 19.3507 11.9577 -12.5093 14.6506 12.1045 -6.99124 19.9625 
11.865 -8.68323 18.2137 12.0239 -12.8945 14.5111 11.7867 -9.42813 17.3969 
11.7505 -10.1058 16.6802 11.7626 -10.7496 16.0571 11.9857 -7.85847 19.1252 
11.8332 -11.3876 15.5274 12.0728 -13.3294 14.3348 11.9425 -12.0835 15.0416 
11.8666 -8.96141 18.0261 11.9677 -8.16651 18.899 11.8053 -9.67522 17.2553 
11.7882 -10.3393 16.5765 11.8253 -10.9838 15.9874 11.9194 -11.6606 15.4579 
12.0339 -12.4267 14.9521 12.1195 -7.1645 19.9601 12.2222 -6.45503 20.6502 
11.9598 -8.46649 18.6836 12.11 -12.808 14.828 11.8764 -9.22242 17.8622 
11.8319 -9.91571 17.1294 11.8364 -10.5739 16.4839 12.085 -7.56008 19.6513 
12.1619 -13.3192 14.5958 11.8996 -11.2387 15.9079 12.0105 -11.961 15.3756 
12.2508 -6.51839 20.7367 11.9626 -8.74058 18.5018 12.0639 -7.91582 19.3822 
11.8929 -9.47263 17.7157 11.8678 -10.1536 17.0159 11.8958 -10.8189 16.3915 
12.1002 -12.2771 15.2905 11.9835 -11.5073 15.8264 12.2121 -6.91318 20.424 
12.1993 -12.9294 14.9838 12.3551 -5.79016 21.4204 12.0604 -8.21278 19.1795 
11.9711 -9.00193 18.3371 11.9175 -9.7168 17.5825 11.9133 -10.3953 16.9076 
12.0711 -11.7803 15.7506 12.1777 -7.32291 20.1022 11.967 -11.071 16.3029 
12.1848 -12.515 15.2944 12.2628 -13.2839 14.9066 12.364 -6.01586 21.36 
12.0635 -8.49016 18.9976 11.9856 -9.25505 18.1857 12.1683 -7.63523 19.8901 
11.9514 -9.95994 17.4578 12.1575 -12.0239 15.7152 11.9697 -10.6402 16.8062 
12.0486 -11.3252 16.2241 12.3021 -6.61955 20.8776 12.285 -12.8058 15.3214 
12.476 -5.12053 22.1139 12.0709 -8.75678 18.8281 12.1671 -7.92789 19.6963 
12.0083 -9.50397 18.0438 12.2454 -12.2848 15.6816 11.9947 -10.2033 17.3412 
12.0384 -10.8858 16.7161 12.1361 -11.5685 16.1703 12.2861 -6.97413 20.6432 
12.3554 -13.23 15.2068 12.4224 -5.9071 21.6056 12.5104 -5.1834 22.2005 
12.17 -8.2107 19.511 12.0836 -9.01646 18.6684 12.0399 -9.75072 17.9106 
12.2804 -7.29249 20.4368 12.049 -10.4463 17.2354 12.2271 -11.8206 16.1228 
12.1192 -11.1274 16.6448 12.3299 -12.4728 15.7305 12.4102 -6.24605 21.4086 
12.3901 -12.8189 15.6041 12.6036 -4.33402 22.8362 12.176 -8.48556 19.334 
12.1043 -9.27153 18.5177 12.2797 -7.59845 20.2369 12.0815 -9.99549 17.7879 
12.116 -10.6874 17.1454 12.209 -11.3742 16.5834 12.3188 -12.0401 16.126 
12.4016 -6.57888 21.2051 12.4548 -13.1497 15.547 12.5349 -5.36144 22.2022 
12.1873 -8.7544 19.1649 12.2817 -7.89561 20.0422 12.134 -9.523 18.377 
12.1342 -10.2386 17.6784 12.6325 -4.4936 22.8582 12.398 -6.90744 20.9981 
12.4109 -12.3482 16.065 12.1964 -10.9321 17.0668 12.3029 -11.6097 16.5515 
12.5276 -5.7275 22.0098 12.4816 -12.691 15.9639 12.7185 -3.54792 23.4725 
12.2866 -8.18555 19.8535 12.2059 -9.01768 19.0054 12.3973 -7.2314 20.7895 
12.1737 -9.77168 18.2478 12.1997 -10.4839 17.5804 12.2871 -11.1748 17.0074 
12.5211 -6.10036 21.7934 12.3999 -11.8935 16.4905 12.6472 -4.77581 22.7829 
12.5463 -13.0525 15.8843 12.2965 -8.46711 19.6745 12.3984 -7.55049 20.5813 
12.2333 -9.27659 18.8562 12.4916 -12.2127 16.412 12.2245 -10.0209 18.1295 
12.5185 -6.467 21.5707 12.7455 -3.79021 23.4528 12.2793 -10.7312 17.4962 
12.3839 -11.4467 16.9352 12.6432 -5.18113 22.5849 12.5671 -12.5656 16.3116 
12.824 -2.76431 24.0348 12.4026 -7.8581 20.3824 12.313 -8.7419 19.5053 
12.5174 -6.8317 21.3403 12.2704 -9.53377 18.7172 12.6394 -5.59832 22.3574 
12.2884 -10.2727 18.0219 12.4804 -11.7466 16.8527 12.3699 -10.9973 17.408 
12.7568 -4.16001 23.333 12.6314 -12.9386 16.224 12.519 -7.17667 21.1218 
12.4111 -8.15528 20.1936 12.637 -6.02483 22.1073 12.3374 -9.0123 19.3455 
12.5712 -12.0761 16.7602 12.3191 -9.79231 18.5875 12.7555 -4.6236 23.1211 
12.3661 -10.5376 17.915 12.8522 -3.08227 23.9889 12.4657 -11.2851 17.3146 
12.6478 -12.4322 16.6599 12.639 -6.4165 21.8749 12.5233 -7.50425 20.9154 
12.7511 -5.13811 22.8502 12.4252 -8.44497 20.0139 12.9227 -1.99168 24.5309 
12.3718 -9.28147 19.1944 12.3807 -10.0598 18.4605 12.5604 -11.5962 17.2163 
12.8616 -3.55386 23.8287 12.455 -10.8188 17.8064 12.711 -12.8085 16.569 
12.8548 -4.19648 23.5335 12.7556 -5.5809 22.615 12.6429 -6.78092 21.6567 
12.5307 -7.81955 20.7183 12.6491 -11.9302 17.1157 12.4465 -8.72999 19.8425 
12.4176 -9.55529 19.0475 12.4562 -10.3393 18.3343 12.5483 -11.1181 17.6965 
12.9534 -2.41543 24.4545 12.7246 -12.2853 17.0161 12.9437 -3.2455 24.1241 
12.8642 -4.68287 23.3136 12.7626 -5.98349 22.3964 12.6478 -7.12673 21.4481 
12.5422 -8.12655 20.5289 12.4775 -9.0153 19.6762 12.6399 -11.4356 17.5878 
13.0154 -1.25059 24.9621 12.4766 -9.83784 18.9024 12.5424 -10.6326 18.2093 
12.7852 -12.6626 16.9205 13.0195 -2.35075 24.6096 12.9623 -3.73999 23.9486 
12.8769 -5.11667 23.1104 12.7693 -6.36185 22.1856 12.7252 -11.7709 17.4828 
12.6543 -7.46034 21.2459 12.5603 -8.42902 20.3453 12.5203 -9.30494 19.5132 
12.6321 -10.94 18.0876 12.5495 -10.1303 18.7602 13.0678 -1.44216 25.0036 
12.7981 -12.1226 17.3847 12.9828 -4.1898 23.7768 13.0513 -2.774 24.5106 
12.8884 -5.52505 22.9094 12.7752 -6.7243 21.9791 12.6633 -7.78576 21.0485 
12.5877 -8.7311 20.1656 12.7194 -11.2613 17.9718 12.5765 -9.60162 19.3529 
12.6321 -10.4335 18.6224 13.1163 -0.458012 25.385 12.854 -12.5023 17.2782 
13.1229 -1.74633 25.0037 13.0012 -4.62058 23.5986 13.0796 -3.21622 24.3812 
12.8975 -5.91636 22.7083 12.8001 -11.596 17.8648 12.7807 -7.07583 21.7751 
12.6778 -8.10595 20.8552 12.6274 -9.03644 19.9887 12.7171 -10.7475 18.4914 
12.646 -9.90606 19.1974 13.1739 -0.758439 25.3976 12.8688 -11.9419 17.77 
13.1631 -2.18211 24.9204 13.1054 -3.6582 24.2346 13.0161 -5.03801 23.4131 
12.9042 -6.29522 22.5065 12.7873 -7.41955 21.5729 12.702 -8.425 20.6646 
12.7989 -11.0718 18.3706 12.6804 -9.34687 19.8157 12.724 -10.2184 19.0488 
12.9167 -12.3295 17.6398 13.2126 0.263828 25.7447 13.2291 -1.13878 25.3733 
13.198 -2.63837 24.807 13.1276 -4.0956 24.0741 12.8736 -11.4046 18.2637 
13.0273 -5.44333 23.2228 12.909 -6.66436 22.304 12.7989 -7.75766 21.3728 
12.7387 -8.7457 20.477 12.803 -10.5385 18.9102 12.7456 -9.66278 19.6489 
13.2765 -0.105425 25.7466 12.9365 -11.7419 18.176 13.2754 -1.58936 25.3013 
13.2286 -3.09505 24.6757 13.1453 -4.52462 23.9036 13.0348 -5.83864 23.0284 
12.9135 -7.02596 22.1006 12.8201 -8.09359 21.1745 12.8778 -10.8654 18.7854 
12.7881 -9.06985 20.2935 12.8174 -9.98359 19.4913 12.9721 -12.148 17.9986 
13.3076 0.927494 26.0624 13.3353 -0.532826 25.7167 13.316 -2.05709 25.2038 
13.2545 -3.54654 24.5307 13.1585 -4.94453 23.7255 12.945 -11.1964 18.6799 
13.0389 -6.22484 22.8306 12.9228 -7.38175 21.8972 12.8536 -8.42984 20.9787 
12.8885 -10.3086 19.3463 12.8475 -9.39645 20.1175 13.0194 -11.964 18.3448 
12.9116 -9.72453 19.9528 12.8987 -8.76688 20.7877 12.9413 -7.73443 21.6946 
13.042 -6.6038 22.6296 13.3871 -1.00084 25.6548 13.3515 -2.52504 25.0895 
13.1665 -5.35547 23.5412 13.2754 -3.98938 24.3755 13.3777 0.514982 26.0624 
12.9546 -10.6355 19.2193 13.001 -11.5229 18.6053 12.9516 -9.10318 20.6054 
12.9738 -10.0527 19.8036 12.9715 -8.08556 21.4942 13.0491 -6.97702 22.4265 
13.1702 -5.75781 23.3513 13.0123 -10.9585 19.1191 13.2904 -4.4231 24.2121 
13.3818 -2.98659 24.9626 13.4336 -1.47858 25.5728 13.4411 0.0578166 26.0344 
13.4034 1.53872 26.3519 13.0627 -11.764 18.7038 13.0069 -9.43757 20.4359 
13.0117 -8.43488 21.2988 13.0296 -10.376 19.6776 13.0652 -7.34608 22.2231 
13.1722 -6.15375 23.156 13.2991 -4.84761 24.0412 13.4058 -3.43958 24.8255 
13.4745 -1.95342 25.477 13.4985 -0.42371 25.9832 13.0597 -11.2599 19.0671 
13.4795 1.10351 26.3548 13.0574 -8.78034 21.1129 13.059 -9.76682 20.2852 
13.0919 -7.71126 22.0217 13.1776 -6.5436 22.9571 13.302 -5.26597 23.8617 
[...]
POINT_DATA 724
VECTORS velocity double
0.752305 -0.936742 0.249024 0.725355 -0.636485 0.201084 0.773735 -1.30043 0.29708 
0.695339 -0.389216 0.147923 0.784331 -1.66091 0.345842 0.746511 -1.21301 0.223599 
0.662886 -0.181691 0.0868285 0.785296 -2.02549 0.408367 0.72458 -0.955664 0.168762 
0.753249 -1.52945 0.257392 0.701181 -0.737463 0.117296 0.677569 -0.525451 0.0715488 
0.631399 -0.0243388 0.0214797 0.755832 -1.84669 0.308954 0.777308 -2.38415 0.495654 
0.722344 -1.30902 0.16476 0.652041 -0.407277 0.0120383 0.698016 -1.05935 0.0951332 
0.751325 -2.1715 0.379987 0.725328 -1.65348 0.208714 0.599735 0.0992473 -0.0502295 
0.760992 -2.74431 0.626383 0.671836 -0.816111 0.0303571 0.624323 -0.266229 -0.0487009 
0.742954 -2.508 0.489797 0.723141 -1.99698 0.27745 0.697271 -1.4376 0.115994 
0.641947 -0.651363 -0.0416421 0.567998 0.192625 -0.128025 0.673734 -1.20292 0.0394967 
0.742509 -3.03667 0.7831 0.716552 -2.35322 0.385478 0.695801 -1.79852 0.17488 
0.595039 -0.149528 -0.116099 0.717161 -2.74179 0.574352 0.64885 -1.00824 -0.0301671 
0.611745 -0.498167 -0.112312 0.670323 -1.58628 0.0792504 0.690827 -2.16032 0.271569 
0.720935 -3.32157 1.00588 0.535181 0.260626 -0.213987 0.563443 -0.0351894 -0.189406 
0.620716 -0.847315 -0.10252 0.703295 -3.0406 0.761449 0.647114 -1.37717 -0.00378748 
0.686512 -2.53438 0.427277 0.665497 -1.95767 0.161339 0.579312 -0.342518 -0.186326 
0.622209 -1.19359 -0.0806851 0.676752 -2.85623 0.610964 0.659543 -2.32667 0.292601 
0.641268 -1.75152 0.0589842 0.591346 -0.682053 -0.174834 0.506402 0.299044 -0.292956 
0.686279 -3.3232 1.01298 0.69925 -3.58223 1.31559 0.540855 -0.0830102 -0.261634 
0.617757 -1.55099 -0.0334229 0.59511 -1.02304 -0.156617 0.6501 -2.66753 0.465622 
0.634389 -2.12048 0.169237 0.560113 -0.474337 -0.24705 0.662665 -3.16776 0.861007 
0.507232 0.0380156 -0.338521 0.592966 -1.36558 -0.11872 0.610388 -1.91583 0.056131 
0.625235 -2.4711 0.325542 0.567179 -0.834269 -0.231514 0.638892 -2.99634 0.70304 
0.663035 -3.51523 1.2704 0.683724 -3.77034 1.67352 0.473999 0.320811 -0.384404 
0.530891 -0.325523 -0.313507 0.58665 -1.7174 -0.0468985 0.567095 -1.181 -0.200583 
0.601345 -2.27126 0.193465 0.614991 -2.81076 0.543474 0.635314 -3.34325 1.0692 
0.538565 -0.671209 -0.303179 0.500173 -0.19721 -0.383539 0.676161 -3.88562 2.06469 
0.643889 -3.64949 1.5529 0.472173 0.0585849 -0.431902 0.562342 -1.52625 -0.14183 
0.57789 -2.07122 0.0704165 0.591502 -2.61668 0.388777 0.609014 -3.15032 0.858809 
0.54038 -1.00822 -0.277814 0.441224 0.32153 -0.478017 0.508441 -0.513617 -0.375537 
0.610431 -3.45463 1.27361 0.554503 -1.8747 -0.0428798 0.583974 -2.9533 0.662797 
0.568302 -2.41835 0.242362 0.537232 -1.34513 -0.229581 0.512156 -0.835323 -0.354299 
0.646184 -3.80703 2.02584 0.475159 -0.278682 -0.450884 0.678359 -3.93103 2.56617 
0.58125 -3.25876 1.02128 0.443678 -0.000403657 -0.512686 0.559818 -2.7545 0.482022 
0.545186 -2.2209 0.10672 0.53068 -1.6857 -0.1465 0.615165 -3.66655 1.73945 
0.511318 -1.16334 -0.313506 0.41096 0.304148 -0.5639 0.482226 -0.615533 -0.433179 
0.554644 -3.0642 0.796787 0.583727 -3.50226 1.4531 0.536156 -2.5574 0.317238 
0.522022 -2.02776 -0.0174894 0.506382 -1.49837 -0.243455 0.484607 -0.95635 -0.397319 
0.450336 -0.365142 -0.510834 0.639326 -3.81901 2.38561 0.691864 -3.88118 3.04987 
0.554411 -3.32738 1.18683 0.41814 -0.0895513 -0.581304 0.52943 -2.87316 0.597778 
0.512858 -2.36367 0.167338 0.498699 -1.83668 -0.132578 0.599073 -3.68583 2.00389 
0.383331 0.273587 -0.640409 0.482009 -1.29972 -0.336704 0.456894 -0.732605 -0.478431 
0.664007 -3.79718 2.97339 0.527028 -3.15337 0.954477 0.563403 -3.53453 1.66809 
0.505077 -2.68395 0.417662 0.489806 -2.17229 0.0297718 0.475469 -1.64149 -0.241115 
0.428155 -0.501079 -0.555357 0.457475 -1.09577 -0.423932 0.623713 -3.74603 2.60231 
0.385244 -0.0211627 -0.656785 0.720639 -3.70918 3.60067 0.53217 -3.38405 1.39668 
0.500954 -2.97711 0.742784 0.48146 -2.49615 0.25309 0.467086 -1.97964 -0.0984842 
0.432564 -0.892654 -0.504727 0.582237 -3.6501 2.21227 0.452437 -1.44588 -0.341183 
0.398549 -0.335039 -0.625972 0.351972 0.222876 -0.723626 0.680066 -3.656 3.38852 
0.503285 -3.22883 1.1517 0.475897 -2.79887 0.548035 0.547029 -3.53826 1.91601 
0.458534 -2.3083 0.101168 0.406805 -0.716251 -0.577717 0.444635 -1.78749 -0.216828 
0.429352 -1.25394 -0.432248 0.619838 -3.66277 2.85259 0.359905 -0.13582 -0.715005 
0.758541 -3.43682 4.07457 0.475938 -3.06774 0.924707 0.514714 -3.41585 1.64401 
0.451908 -2.6192 0.368147 0.379011 -0.529451 -0.65218 0.436137 -2.12053 -0.0391212 
0.422343 -1.5991 -0.324299 0.40543 -1.07472 -0.514765 0.577371 -3.59754 2.52036 
0.322877 0.161872 -0.796031 0.666625 -3.53889 3.45044 0.731982 -3.3559 3.99391 
0.484342 -3.28256 1.38715 0.449902 -2.90168 0.713295 0.428837 -2.43855 0.201943 
0.539759 -3.51605 2.22181 0.414046 -1.93466 -0.167568 0.380187 -0.891553 -0.595348 
0.399705 -1.41871 -0.42092 0.349996 -0.401623 -0.720836 0.62238 -3.52548 3.153 
0.323626 -0.14995 -0.791873 0.8084 -3.02124 4.50627 0.45547 -3.13928 1.14413 
0.425145 -2.73226 0.516968 0.504914 -3.42023 1.93704 0.406396 -2.25804 0.0490631 
0.391884 -1.75326 -0.28402 0.376245 -1.23803 -0.511974 0.352813 -0.736222 -0.670401 
0.580693 -3.49653 2.85515 0.290947 0.0815431 -0.86864 0.694194 -3.30637 3.83182 
0.428029 -2.98796 0.915097 0.472077 -3.31006 1.66346 0.40143 -2.56063 0.335302 
0.384129 -2.07855 -0.0912813 0.773411 -2.9843 4.37147 0.541091 -3.45029 2.55757 
0.322906 -0.514096 -0.758173 0.369429 -1.57311 -0.391433 0.350985 -1.06838 -0.59688 
0.645471 -3.33095 3.54023 0.293861 -0.264968 -0.842805 0.858257 -2.533 4.79392 
0.440888 -3.18649 1.40112 0.401958 -2.83085 0.701087 0.50333 -3.38565 2.26184 
0.378364 -2.38756 0.167514 0.361833 -1.89904 -0.220986 0.345988 -1.39761 -0.490315 
0.598499 -3.34407 3.23334 0.323834 -0.863101 -0.689726 0.728383 -3.00148 4.16863 
0.260153 -0.0071798 -0.930735 0.411307 -3.05217 1.1531 0.467201 -3.30225 1.96977 
0.377001 -2.66924 0.501798 0.294747 -0.631392 -0.786103 0.355558 -2.21232 0.0114849 
0.553758 -3.33675 2.9216 0.81721 -2.5506 4.64294 0.33924 -1.72089 -0.340181 
0.321248 -1.20167 -0.59225 0.675768 -3.0733 3.88882 0.264275 -0.373687 -0.883614 
0.90337 -2.00017 4.93907 0.432979 -3.20205 1.68961 0.383223 -2.9092 0.919689 
0.510633 -3.30719 2.60318 0.352778 -2.50321 0.315624 0.62375 -3.13425 3.58392 
0.33283 -2.03519 -0.133506 0.294661 -0.984477 -0.697074 0.316145 -1.53131 -0.456877 
0.766615 -2.63637 4.43754 0.229923 -0.103996 -0.98278 0.470239 -3.25382 2.29576 
0.400558 -3.0877 1.42285 0.572087 -3.17442 3.2537 0.356355 -2.75862 0.700034 
0.265877 -0.744463 -0.804564 0.329039 -2.33275 0.141253 0.709573 -2.76468 4.17415 
0.310163 -1.85041 -0.272191 0.858547 -2.07478 4.79992 0.291803 -1.32594 -0.573462 
0.234719 -0.483199 -0.913822 0.524481 -3.18087 2.9336 0.432298 -3.1801 2.00098 
0.64828 -2.89309 3.8528 0.369768 -2.96132 1.16915 0.939958 -1.45014 4.95124 
0.330498 -2.60114 0.493136 0.305718 -2.15498 -0.0249385 0.265484 -1.10167 -0.691512 
0.802761 -2.24006 4.61311 0.28719 -1.65504 -0.406171 0.20005 -0.208271 -1.02408 
0.731496 -2.47968 4.32978 0.593831 -2.9676 3.54466 0.480233 -3.1597 2.62401 
0.396407 -3.08891 1.71753 0.236747 -0.858429 -0.810861 0.340397 -2.82431 0.927996 
0.305432 -2.4355 0.296011 0.282724 -1.96873 -0.183388 0.262912 -1.4449 -0.538437 
0.890995 -1.59801 4.84009 0.205131 -0.596938 -0.931836 0.811327 -1.98192 4.63763 
0.672871 -2.61834 4.06471 0.543721 -3.00665 3.24292 0.438544 -3.11528 2.32261 
0.36226 -2.9822 1.44459 0.312338 -2.67731 0.697746 0.236514 -1.21812 -0.670497 
0.965508 -0.915603 4.85113 0.281142 -2.26099 0.107811 0.259479 -1.7718 -0.335511 
0.170438 -0.318832 -1.05363 0.876429 -1.46183 4.76698 0.754102 -2.15693 4.44348 
0.619101 -2.71568 3.79855 0.496491 -3.01779 2.94314 0.20752 -0.974677 -0.802713 
0.3989 -3.05043 2.02778 0.329805 -2.86196 1.182 0.285476 -2.52029 0.47747 
0.234823 -1.56085 -0.484294 0.257363 -2.07726 -0.0710315 0.935606 -0.937111 4.77828 
0.175417 -0.715225 -0.935873 0.700295 -2.29888 4.23617 0.829013 -1.61718 4.6523 
0.567855 -2.78441 3.52475 0.451387 -3.00439 2.64371 0.36105 -2.96711 1.73935 
0.298997 -2.72942 0.929399 0.207904 -1.33434 -0.631552 0.259668 -2.35304 0.267168 
0.233298 -1.88227 -0.242181 0.980775 -0.351122 4.63594 0.141162 -0.433603 -1.07026 
0.89761 -1.01855 4.70149 0.647728 -2.41823 4.0113 0.779674 -1.78165 4.51589 
0.518365 -2.82727 3.24263 0.178264 -1.09276 -0.7778 0.408014 -2.96843 2.34442 
0.325089 -2.86765 1.45871 0.269787 -2.58516 0.686838 0.207776 -1.67312 -0.408726 
0.234513 -2.17521 0.0672695 0.948664 -0.439997 4.59853 0.14544 -0.837366 -0.923852 
0.853141 -1.18843 4.62639 0.729208 -1.93797 4.35528 0.595945 -2.51543 3.76888 
0.470271 -2.84552 2.95282 0.36636 -2.9119 2.04662 0.291077 -2.75378 1.18652 
0.179866 -1.44868 -0.572596 0.241863 -2.42889 0.454734 0.209091 -1.98489 -0.123995 
0.112485 -0.549871 -1.07294 0.982691 0.145669 4.35444 0.911908 -0.576227 4.56492 
0.806316 -1.37035 4.53167 0.677944 -2.0803 4.17042 0.149121 -1.21042 -0.734061 
0.544826 -2.58884 3.51047 0.423477 -2.84017 2.65686 0.326657 -2.83698 1.75301 
0.258957 -2.62628 0.923816 0.182144 -1.7795 -0.309745 0.214744 -2.26018 0.233429 
0.952453 0.0178208 4.35884 0.115067 -0.961255 -0.893535 0.871212 -0.759456 4.53009 
0.75776 -1.54667 4.41211 0.626246 -2.20375 3.96268 0.494336 -2.63832 3.23773 
0.378142 -2.81278 2.35711 0.289091 -2.74569 1.46556 0.152779 -1.55863 -0.491598 
0.228367 -2.48473 0.67097 0.187424 -2.07739 0.0214078 0.0850397 -0.663795 -1.06117 
0.973497 0.580859 4.03237 0.918973 -0.147119 4.36779 0.827783 -0.953163 4.47644 
0.707811 -1.71053 4.2667 0.574285 -2.30561 3.73364 0.120337 -1.32422 -0.669862 
0.444641 -2.66398 2.95322 0.334698 -2.7655 2.05731 0.253628 -2.63877 1.18579 
0.158639 -1.87856 -0.184075 0.198725 -2.32865 0.428919 0.0597168 -0.771135 -1.03563 
0.168996 -2.15668 0.196537 0.219878 -2.51569 0.914976 0.293396 -2.70004 1.76023 
0.396042 -2.66709 2.65975 0.882338 -0.340418 4.37155 0.782076 -1.14289 4.39796 
0.522226 -2.38447 3.48523 0.656808 -1.85706 4.09603 0.947099 0.433894 4.07514 
0.127546 -1.66451 -0.383679 0.0841423 -1.08227 -0.843335 0.187223 -2.37586 0.654281 
0.138029 -1.96792 -0.0279021 0.254302 -2.61709 1.46839 0.34904 -2.64932 2.36119 
0.470419 -2.44024 3.22026 0.0934122 -1.43904 -0.576473 0.604869 -1.98334 3.90092 
0.73448 -1.32143 4.29301 0.842815 -0.540598 4.35625 0.918046 0.256066 4.12221 
0.955008 0.959062 3.68771 0.034915 -0.878659 -0.993801 0.154642 -2.2182 0.403118 
0.217055 -2.51595 1.18366 0.104948 -1.76452 -0.243627 0.30407 -2.61209 2.06141 
0.419152 -2.47382 2.94103 0.552279 -2.08803 3.68328 0.6852 -1.48447 4.16139 
0.800663 -0.736468 4.31622 0.885902 0.0592805 4.16076 0.0555265 -1.21389 -0.756873 
0.933297 0.80794 3.76076 0.180982 -2.39562 0.907542 0.121095 -2.0429 0.161547 
0.261295 -2.55569 1.76394 0.369091 -2.48615 2.652 0.499149 -2.1718 3.4442 
0.634526 -1.62872 4.004 0.068983 -1.55186 -0.448187 0.756199 -0.921828 4.24973 
0.850635 -0.140446 4.17893 0.909321 0.628134 3.8399 0.928724 1.28538 3.33273 
0.00930247 -0.993084 -0.927649 0.145156 -2.25546 0.640521 0.220364 -2.47911 1.47085 
0.0856878 -1.85243 -0.0691754 0.320805 -2.47807 2.35772 0.446007 -2.2341 3.18672 
0.582225 -1.75562 3.82062 0.70989 -1.09198 4.15708 0.812475 -0.334859 4.17244 
0.881896 0.43452 3.90777 0.0291879 -1.33124 -0.645067 0.91167 1.14452 3.42257 
0.180615 -2.38102 1.1838 0.108641 -2.09601 0.383387 0.274519 -2.44954 2.06186 
0.393641 -2.27544 2.9154 0.52873 -1.86352 3.61281 0.0474879 -1.6486 -0.290726 
0.660958 -1.25134 4.03731 0.850898 0.241033 3.95333 0.772345 -0.514178 4.1398 
0.893364 0.968266 3.52998 -0.015719 -1.10905 -0.831398 0.895649 1.56594 2.97407 
0.141247 -2.26088 0.904189 0.229928 -2.39913 1.76676 0.070455 -1.91847 0.135716 
0.342683 -2.29617 2.63472 0.47472 -1.95158 3.38358 0.609804 -1.39545 3.89021 
0.728838 -0.692266 4.08357 0.870432 0.778081 3.62468 0.81798 0.0692796 3.96854 
0.0059353 -1.43526 -0.502705 0.882146 1.45247 3.05847 0.186413 -2.32514 1.47417 
0.101353 -2.11893 0.632679 0.29336 -2.29549 2.34826 0.420971 -2.01963 3.13691 
0.556906 -1.52305 3.71702 0.0298545 -1.72544 -0.102139 0.682229 -0.861406 4.00035 
0.781202 -0.114089 3.96914 0.845047 0.629878 3.66999 0.871011 1.26315 3.21308 
-0.0387098 -1.22061 -0.699742 0.143325 -2.22696 1.18606 0.245379 -2.27149 2.05818 
0.856169 1.8076 2.61341 0.0601249 -1.95661 0.369853 0.368195 -2.06713 2.87728 
0.503039 -1.63264 3.52044 0.632898 -1.01802 3.88946 0.740727 -0.295869 3.94641 
0.815718 0.451578 3.71815 0.853204 1.15261 3.2678 -0.01336 -1.52312 -0.325541 
0.848005 1.62527 2.79596 0.0998946 -2.10474 0.904014 0.198244 -2.22247 1.76628 
0.316482 -2.09269 2.60728 0.448956 -1.72366 3.30384 0.0170792 -1.77728 0.118458 
0.581493 -1.15988 3.75201 0.696745 -0.470915 3.89729 0.782216 0.267111 3.74876 
0.832015 0.982843 3.35875 -0.0582146 -1.32118 -0.52784 0.151486 -2.14738 1.47548 
0.832122 1.46128 2.92421 0.055551 -1.96025 0.629827 0.265621 -2.0941 2.32902 
0.395208 -1.79456 3.07056 0.817415 1.98799 2.3032 0.528746 -1.28594 3.59026 
0.805839 0.799849 3.43747 0.649835 -0.634483 3.82072 0.744628 0.0839268 3.75598 
-0.0276561 -1.58899 -0.111176 0.104564 -2.04654 1.18809 0.812746 1.83296 2.47849 
0.215232 -2.06934 2.04449 0.812507 1.27784 3.04965 0.341832 -1.84346 2.82254 
0.0101059 -1.79721 0.368327 0.475238 -1.39494 3.40651 0.775037 0.614943 3.49466 
0.600771 -0.784428 3.71808 0.703534 -0.0908677 3.73643 -0.0726003 -1.403 -0.311624 
0.801813 1.66961 2.63302 0.165065 -2.01729 1.75704 0.0571867 -1.92196 0.907332 
0.288635 -1.86789 2.56136 0.788298 1.0958 3.15018 0.421187 -1.48542 3.20225 
0.740319 0.437975 3.52465 0.550033 -0.920565 3.59106 0.659723 -0.253683 3.69025 
0.775658 2.14184 2.0024 -0.0357668 -1.62481 0.140235 0.785108 1.5047 2.76238 
0.114895 -1.9383 1.4703 0.235425 -1.86533 2.28943 0.774288 2.00297 2.18004 
0.75996 0.924533 3.22014 0.36663 -1.5544 2.9787 0.0094647 -1.77732 0.639419 
0.49773 -1.04303 3.44035 0.70256 0.273316 3.52714 0.613767 -0.404343 3.61934 
-0.0800611 -1.45637 -0.0490185 0.767605 1.85213 2.34517 0.0647339 -1.83493 1.18818 
0.763404 1.3496 2.85931 0.182285 -1.83452 2.01115 0.311315 -1.59893 2.73652 
0.44404 -1.14891 3.26637 0.72833 0.767978 3.25991 0.565457 -0.54651 3.52484 
0.66252 0.120973 3.50486 0.732055 2.27149 1.71565 -0.0367575 -1.61995 0.423876 
0.75303 1.71238 2.46697 0.129518 -1.77648 1.73217 0.255104 -1.61589 2.47747 
0.0146863 -1.71039 0.914896 0.737751 1.20907 2.92408 0.732726 2.15282 1.88535 
0.388872 -1.23456 3.06906 0.514898 -0.677733 3.40606 0.694489 0.626626 3.27331 
0.619779 -0.0280296 3.46209 0.729977 2.01967 2.05294 -0.0785984 -1.4693 0.259974 
0.733002 1.58853 2.55011 0.0776226 -1.69543 1.45783 0.198074 -1.60355 2.20482 
0.332041 -1.29666 2.8485 0.462046 -0.794976 3.26202 0.709637 1.09026 2.95609 
0.574253 -0.171761 3.39719 0.657964 0.482606 3.2723 0.686867 2.38176 1.44126 
-0.0301624 -1.56082 0.731033 0.71659 1.90497 2.16198 0.0264584 -1.59805 1.18572 
0.273447 -1.33243 2.6056 0.14018 -1.5622 1.92122 0.406753 -0.894064 3.09147 
0.709441 1.49904 2.5836 0.525776 -0.307845 3.30822 0.618566 0.338775 3.25371 
0.679215 0.961428 2.98346 0.687028 2.29152 1.58221 0.690494 2.16612 1.76966 
-0.06587 -1.42554 0.613664 0.695801 1.84839 2.17991 0.213123 -1.34042 2.3421 
0.34869 -0.972448 2.8932 0.474333 -0.432143 3.19324 0.0803168 -1.49779 1.61998 
0.575878 0.196257 3.21512 0.684417 1.39093 2.62657 0.646181 0.828476 2.99934 
0.63995 2.47653 1.17627 0.00433667 -1.45592 1.16811 0.671334 2.13898 1.76362 
0.287447 -1.02867 2.66573 0.419598 -0.542196 3.05025 0.150479 -1.32334 2.05603 
0.529884 0.0598746 3.15323 0.675377 1.76146 2.23 0.609885 0.689754 3.0024 
0.657251 1.27753 2.66278 0.646381 2.36388 1.38061 -0.0438938 -1.32504 0.946027 
0.0802295 -1.30624 1.71074 0.361199 -0.636632 2.8773 0.65474 2.06921 1.81843 
0.222005 -1.06405 2.40454 0.48038 -0.0678809 3.06586 0.570157 0.55244 2.98614 
0.627312 1.15077 2.6967 0.653118 1.67333 2.27201 0.598157 2.54749 0.954694 
0.0229859 -1.27645 1.41094 0.628848 2.3098 1.42695 0.298559 -0.716448 2.67158 
0.148721 -1.08957 2.09019 0.427164 -0.185471 2.95125 0.526814 0.418192 2.94846 
0.594041 1.02059 2.71694 0.635777 2.0095 1.85124 0.629144 1.56333 2.32682 
0.60255 2.46882 1.11157 0.230781 -0.786881 2.4281 0.37008 -0.292317 2.80783 
-0.010245 -1.14557 1.28713 0.608625 2.28356 1.42309 0.479814 0.291237 2.8863 
0.557011 0.887886 2.72075 0.602167 1.44754 2.3729 0.0776998 -1.05995 1.7694 
0.617108 1.91811 1.9189 0.554581 2.60992 0.736999 0.573973 2.49039 1.01464 
0.162437 -0.828139 2.15997 0.309338 -0.390547 2.63555 0.42927 0.172352 2.7991 
0.516158 0.759085 2.7026 0.571569 1.32202 2.41102 0.5941 2.20832 1.50003 
0.595841 1.82217 1.97929 0.24733 -0.46918 2.43828 0.0261167 -0.928224 1.54887 
0.37558 0.0614318 2.68734 0.562804 2.42941 1.09859 0.471608 0.637612 2.66027 
0.536898 1.19664 2.4301 0.571682 1.70809 2.04517 0.10586 -0.777207 1.924 
0.576859 2.13719 1.55932 0.517492 2.65495 0.561736 0.186762 -0.516738 2.22484 
0.529156 2.58014 0.752871 0.320125 -0.0373981 2.55281 0.423509 0.520536 2.59553 
0.543306 1.59119 2.09503 0.558896 2.03636 1.6483 0.498267 1.0784 2.42459 
0.546791 2.38957 1.13181 0.264338 -0.117578 2.39784 0.0700315 -0.632731 1.77062 
0.372271 0.409566 2.50754 0.535361 2.30049 1.24544 0.536646 1.93163 1.72258 
0.510811 1.48039 2.12035 0.455824 0.96356 2.39758 0.141339 -0.429166 2.03702 
0.506001 2.58372 0.701776 0.478044 2.6952 0.385796 0.209556 -0.175965 2.22745 
0.318228 0.305372 2.39594 0.503901 2.50113 0.857426 0.518729 2.21091 1.33726 
0.510081 1.83497 1.76882 0.40979 0.847141 2.35213 0.474217 1.37318 2.12375 
0.261158 0.210863 2.25752 0.118356 -0.258522 1.91461 0.445016 2.7232 0.247315 
0.466498 2.64349 0.497973 0.492349 2.42701 0.962608 0.359936 0.729678 2.28538 
0.497158 2.136 1.38916 0.479628 1.7352 1.80056 0.434073 1.26441 2.11012 
0.1902 0.00820628 2.09839 0.461365 2.58216 0.622067 0.304923 0.601008 2.19688 
0.473108 2.04985 1.44111 0.47343 2.3801 0.998927 0.391325 1.15133 2.08276 
0.444552 1.63359 1.81337 0.239329 0.418262 2.08657 0.4115 2.74644 0.116144 
0.428256 2.68848 0.319357 0.162716 0.146452 1.94854 0.345656 1.03008 2.04181 
0.444903 1.94902 1.49024 0.454822 2.31495 1.05595 0.440607 2.56702 0.61294 
0.406146 1.53427 1.80516 0.296738 0.880368 1.99769 0.434341 2.22129 1.13742 
0.425734 2.52664 0.658204 0.410727 1.85803 1.50224 0.404198 2.6931 0.264578 
0.365929 1.4227 1.79185 0.250014 0.751933 1.93201 0.196175 0.517151 1.88936 
0.378171 2.76362 -0.00199556 0.413227 2.44389 0.769678 0.408017 2.12983 1.18834 
0.322636 1.29076 1.77423 0.372888 1.76758 1.49217 0.386023 2.68331 0.254093 
0.276203 1.13973 1.74787 0.393555 2.36979 0.834197 0.384541 2.60805 0.415377 
0.349725 2.77205 -0.0892971 0.374246 2.04692 1.1963 0.225573 0.93154 1.7326 
0.334629 1.64868 1.49628 0.370365 2.28436 0.891471 0.368032 2.55841 0.46805 
0.35056 2.71399 0.0961676 0.290664 1.48042 1.51349 0.335862 1.96402 1.17725 
0.325967 2.77209 -0.146863 0.244762 1.30501 1.51243 0.350784 2.49569 0.527036 
0.335024 2.6861 0.122807 0.337752 2.21297 0.888891 0.298354 1.77223 1.26117 
0.332083 2.41328 0.597915 0.302318 2.76101 -0.180245 0.319374 2.64925 0.155233 
0.255593 1.63859 1.24926 0.295771 2.01307 0.993316 0.299684 2.20682 0.773179 
0.307233 2.59166 0.22634 0.297255 2.37805 0.533641 0.284115 2.7363 -0.172002 
0.259953 1.9255 0.966846 0.293369 2.51968 0.3025 0.270584 2.69365 -0.117735 
0.260146 2.17586 0.670511 0.262061 2.62595 -0.00850571 0.258666 2.36724 0.406011 
0.25836 2.51525 0.175764 
