# vtk DataFile Version 3.0
vtk output
ASCII
DATASET POLYDATA
POINTS 724 float
11.0595 -11.261 13.2747 11.0877 -11.6543 13.0418 11.0619 -10.8204 13.6436 
11.1394 -12.005 12.918 11.0944 -10.4105 14.0829 11.1351 -10.964 13.7561 
11.2162 -12.3256 12.8823 11.1514 -10.0109 14.5901 11.1654 -11.2935 13.5646 
11.1597 -10.5981 14.1569 11.2086 -11.5883 13.4413 11.2532 -11.8829 13.3248 
11.3024 -12.5883 12.9221 11.1937 -10.2388 14.5781 11.2277 -9.61882 15.1492 
11.2199 -10.8902 14.1037 11.3265 -12.074 13.3748 11.2661 -11.2156 13.9535 
11.2471 -9.87573 15.0571 11.2451 -10.4892 14.557 11.3991 -12.8118 13.0206 
11.3236 -9.20972 15.7779 11.3227 -11.5446 13.8253 11.4041 -12.3002 13.4065 
11.3141 -9.49188 15.5818 11.2849 -10.0951 15.0377 11.2978 -10.7699 14.4876 
11.4036 -11.7916 13.8427 11.5028 -12.9963 13.1692 11.3466 -11.0757 14.3575 
11.4172 -8.84953 16.3496 11.3415 -9.68261 15.5678 11.3269 -10.3465 14.9826 
11.4922 -12.5009 13.4897 11.4011 -9.214 16.1052 11.4082 -11.3424 14.293 
11.4893 -12.0294 13.8784 11.372 -10.6182 14.898 11.3707 -9.92194 15.5007 
11.526 -8.45035 16.9835 11.6136 -13.1465 13.367 11.5863 -12.703 13.5952 
11.4854 -11.5773 14.3013 11.4857 -8.82652 16.6594 11.4209 -10.891 14.8023 
11.4244 -9.46987 16.0415 11.406 -10.1765 15.4219 11.5824 -12.2772 13.928 
11.4837 -11.1411 14.7547 11.4949 -9.05833 16.5803 11.4521 -9.72972 15.9569 
11.4462 -10.4388 15.3343 11.5691 -11.8236 14.313 11.7114 -13.2458 13.5707 
11.5885 -8.40746 17.2754 11.6494 -8.00023 17.6806 11.6764 -12.674 13.8708 
11.4941 -10.6996 15.2518 11.5591 -11.3832 14.7421 11.5137 -9.29726 16.5037 
11.4847 -9.99014 15.8671 11.6564 -12.1316 14.2797 11.5892 -8.61394 17.194 
11.7693 -12.8842 13.978 11.5552 -10.9492 15.201 11.5228 -10.2515 15.7762 
11.5376 -9.54836 16.4105 11.6409 -11.6546 14.7121 11.5943 -8.84182 17.0965 
11.6973 -8.03941 17.8785 11.7684 -7.55339 18.3421 11.8215 -13.3236 13.8276 
11.7387 -12.3645 14.3105 11.5689 -10.5092 15.6958 11.6276 -11.2051 15.161 
11.5671 -9.80509 16.3127 11.6065 -9.08841 16.9881 11.6935 -8.29095 17.7639 
11.7255 -11.8978 14.7209 11.8247 -12.5742 14.3812 11.8805 -7.10804 18.9648 
11.8026 -7.68297 18.4486 11.8808 -12.9578 14.2447 11.6265 -10.7641 15.6325 
11.6024 -10.0634 16.218 11.6258 -9.34573 16.8745 11.6918 -8.57174 17.6156 
11.7079 -11.4524 15.1434 11.9317 -13.3677 14.112 11.8144 -12.1392 14.7481 
11.791 -8.01215 18.2702 11.6459 -10.3202 16.1331 11.6996 -8.85243 17.4713 
11.6515 -9.60752 16.7626 11.696 -11.0132 15.5905 11.7955 -11.7059 15.1375 
11.9205 -7.14461 19.1218 11.9081 -12.4926 14.6952 12.0088 -6.5625 19.677 
11.7875 -8.32877 18.0931 11.9791 -12.9098 14.5634 11.7153 -9.12986 17.3352 
11.684 -9.86765 16.6602 11.7007 -10.5723 16.0658 11.9006 -7.4592 18.9277 
11.7761 -11.2701 15.5556 12.0327 -13.3793 14.3933 11.891 -12.029 15.0843 
11.7938 -8.62945 17.9309 11.8879 -7.78617 18.7332 11.738 -9.39993 17.2127 
11.7257 -10.1239 16.5713 11.7673 -10.8287 16.0081 11.8664 -11.5677 15.4967 
11.9872 -12.4014 15.0045 12.0294 -6.74956 19.6956 12.124 -6.03318 20.3162 
11.8849 -8.10633 18.5474 12.0682 -12.8145 14.8892 11.808 -8.91265 17.7897 
11.7686 -9.66309 17.1043 11.7778 -10.381 16.4925 12.0012 -7.16058 19.4282 
12.1253 -13.3668 14.6641 11.8456 -11.1071 15.9401 11.9619 -11.8944 15.4245 
12.1565 -6.1071 20.4126 11.8924 -8.4006 18.3918 11.9859 -7.53381 19.1958 
11.8287 -9.18491 17.664 11.8085 -9.92341 17.0072 11.8411 -10.6491 16.4133 
12.0561 -12.2376 15.3491 11.9334 -11.3998 15.8694 12.1237 -6.50819 20.1395 
12.162 -12.9447 15.0546 12.253 -5.38829 21.0314 11.9874 -7.84828 19.0232 
11.9053 -8.68244 18.2511 11.8573 -9.45102 17.5499 11.858 -10.1878 16.9141 
12.0251 -11.6968 15.8037 12.0956 -6.92923 19.8597 11.9161 -10.9243 16.337 
12.145 -12.4951 15.3619 12.2302 -13.3271 14.9855 12.2676 -5.62128 20.9949 
11.9954 -8.14375 18.8687 11.9242 -8.95631 18.1219 12.0917 -7.25479 19.68 
11.8952 -9.71617 17.443 12.1154 -11.9613 15.7775 11.9182 -10.4553 16.827 
12.0015 -11.2012 16.2694 12.214 -6.22522 20.5692 12.2506 -12.8094 15.4 
12.3696 -4.74898 21.6775 12.0074 -8.42913 18.7247 12.0956 -7.56186 19.5162 
11.951 -9.22621 18.0007 12.2074 -12.2442 15.7532 11.9424 -9.9816 17.3429 
11.9906 -10.7232 16.7498 12.0928 -11.4657 16.2259 12.2042 -6.58803 20.3709 
12.3264 -13.2676 15.2951 12.328 -5.52668 21.2361 12.4078 -4.82209 21.7745 
12.1034 -7.8603 19.3595 12.0245 -8.70815 18.589 11.9867 -9.49409 17.8868 
12.2042 -6.91635 20.1971 12.0005 -10.2465 17.2525 12.1878 -11.7395 16.1884 
12.0752 -10.9862 16.6904 12.2961 -12.4475 15.8108 12.3219 -5.86834 21.0715 
12.3603 -12.8224 15.6929 12.4921 -4.00781 22.3566 12.1142 -8.15191 19.2095 
12.0494 -8.98299 18.4607 12.2089 -7.23383 20.0284 12.0322 -9.76003 17.7819 
12.0713 -10.509 17.1765 12.1687 -11.2545 16.6402 12.2835 -11.9775 16.2011 
12.3192 -6.20549 20.9004 12.4297 -13.1798 15.6451 12.4375 -5.00718 21.795 
12.13 -8.43842 19.0662 12.216 -7.54408 19.8639 12.0833 -9.25453 18.3408 
12.0886 -10.0243 17.689 12.5257 -4.17306 22.3946 12.3213 -6.54023 20.7257 
12.3802 -12.3116 16.151 12.1555 -10.775 17.1109 12.2667 -11.5101 16.619 
12.4367 -5.37207 21.6345 12.4554 -12.6831 16.0599 12.6023 -3.27444 22.964 
12.2258 -7.84859 19.7042 12.1531 -8.72006 18.9308 12.3262 -6.87233 20.5494 
12.1269 -9.5235 18.231 12.158 -10.2908 17.6063 12.25 -11.0386 17.0636 
12.4365 -5.74487 21.4515 12.3679 -11.8181 16.5694 12.5463 -4.45521 22.3425 
12.525 -13.074 15.9908 12.2405 -8.14592 19.5527 12.3328 -7.20161 20.3731 
12.1847 -8.99787 18.8042 12.4641 -12.1643 16.5026 12.1817 -9.79329 18.1308 
12.4401 -6.11359 21.2626 12.6346 -3.51671 22.9621 12.2414 -10.5591 17.5365 
12.3508 -11.3336 17.0038 12.5491 -4.85444 22.1752 12.5443 -12.5468 16.4138 
12.7041 -2.5481 23.5114 12.3422 -7.52124 20.2049 12.2617 -8.43748 19.4096 
12.4451 -6.48275 21.0668 12.226 -9.27451 18.6865 12.5521 -5.26661 21.981 
12.2496 -10.066 18.0403 12.4516 -11.659 16.9341 12.3359 -10.8476 17.4623 
12.6523 -3.87921 22.8657 12.6137 -12.9506 16.338 12.4526 -6.83473 20.8818 
12.3558 -7.83201 20.0456 12.5566 -5.69027 21.7667 12.2906 -8.72552 19.2745 
12.547 -12.0164 16.8545 12.2788 -9.55307 18.5769 12.6581 -4.33085 22.6832 
12.3312 -10.3527 17.9497 12.7379 -2.86009 23.4824 12.4358 -11.1596 17.3829 
12.6285 -12.4026 16.7671 12.5651 -6.08265 21.5691 12.4625 -7.1715 20.7076 
12.6614 -4.83336 22.4475 12.3748 -8.13663 19.894 12.8001 -1.83453 24.0061 
12.3293 -9.01316 19.1467 12.3445 -9.84142 18.4691 12.5348 -11.4969 17.2987 
12.754 -3.31602 23.344 12.424 -10.6569 17.857 12.6968 -12.8102 16.6891 
12.7556 -3.93515 23.0806 12.673 -5.26979 22.246 12.5751 -6.4507 21.3846 
12.4754 -7.4979 20.5416 12.6281 -11.8591 17.2124 12.401 -8.4378 19.7495 
12.3794 -9.30641 19.0224 12.424 -10.1429 18.3614 12.5214 -10.9808 17.7628 
12.8367 -2.24466 23.9439 12.7086 -12.2443 17.127 12.836 -3.03624 23.6379 
12.7723 -4.40858 22.8904 12.6866 -5.66972 22.0604 12.5861 -6.80262 21.2089 
12.4922 -7.8177 20.3822 12.4366 -8.74038 19.609 12.6174 -11.3247 17.6697 
12.8916 -1.15088 24.4472 12.4427 -9.60943 18.8988 12.5142 -10.4592 18.2541 
12.7745 -12.6533 17.0456 12.9054 -2.19596 24.1082 12.8616 -3.51409 23.485 
12.7919 -4.8337 22.7167 12.6997 -6.04836 21.8824 12.7074 -11.6882 17.5803 
12.5983 -7.14453 21.039 12.5154 -8.13447 20.2277 12.4839 -9.04846 19.4708 
12.6082 -10.7913 18.1499 12.5197 -9.92346 18.7772 12.948 -1.34192 24.4984 
12.7854 -12.0698 17.4978 12.8886 -3.95062 23.337 12.9428 -2.60464 24.0236 
12.81 -5.23635 22.5459 12.7119 -6.41366 21.7085 12.613 -7.48025 20.8732 
12.5477 -8.45222 20.0761 12.7 -11.139 18.0514 12.5445 -9.36475 19.3343 
12.6066 -10.2495 18.6592 12.9927 -0.419128 24.892 12.8466 -12.4816 17.4069 
13.0078 -1.63944 24.5091 12.9136 -4.37044 23.1841 12.977 -3.03125 23.9108 
12.8256 -5.62463 22.3758 12.7855 -11.5016 17.9615 12.7235 -6.77044 21.5373 
12.633 -7.81248 20.7107 12.5923 -8.77456 19.9262 12.696 -10.5879 18.5475 
12.6184 -9.69003 19.2015 13.0543 -0.711938 24.9108 12.8594 -11.877 17.8837 
13.0533 -2.05912 24.4362 13.009 -3.45842 23.7832 12.935 -4.7792 23.0258 
12.8388 -6.00305 22.2059 12.7361 -7.12162 21.3677 12.6625 -8.14516 20.5502 
12.7824 -10.9382 18.4457 12.65 -9.10335 19.7793 12.7008 -10.0247 19.0749 
12.9125 -12.2972 17.7705 13.0907 0.248971 25.2806 13.1139 -1.07973 24.8927 
13.0937 -2.49795 24.3352 13.0374 -3.88246 23.6442 12.8621 -11.2987 18.3575 
12.9528 -5.17831 22.8642 12.8499 -6.37423 22.0357 12.7535 -7.46915 21.1997 
12.7043 -8.48102 20.3917 12.7844 -10.3687 18.9576 12.7198 -9.43906 19.6374 
13.1581 -0.108498 25.2845 12.9303 -11.6646 18.2884 13.1649 -1.51275 24.8271 
13.1301 -2.93775 24.2189 13.0616 -4.30009 23.4973 12.9669 -5.56993 22.6999 
12.8608 -6.74022 21.8651 12.7804 -7.81629 21.033 12.8641 -10.7213 18.8537 
12.7587 -8.82191 20.2363 12.7962 -9.78124 19.5038 12.9709 -12.1044 18.1298 
13.1884 0.865326 25.6316 13.2208 -0.520224 25.2564 13.2106 -1.96179 24.7378 
13.162 -3.37365 24.0914 13.0812 -4.71084 23.345 12.9366 -11.0794 18.7689 
12.9776 -5.95495 22.5334 12.8763 -7.1025 21.6946 12.8194 -8.16545 20.868 
12.8722 -10.1294 19.3823 12.8231 -9.16686 20.0875 13.0208 -11.9096 18.4749 
12.8921 -9.51509 19.9489 12.8698 -8.5172 20.707 12.9008 -7.46364 21.5245 
12.9873 -6.3351 22.3646 13.2768 -0.969557 25.1968 13.2515 -2.41147 24.6343 
13.096 -5.11505 23.1885 13.1891 -3.8027 23.9563 13.2615 0.466714 25.6298 
12.9434 -10.4811 19.2781 12.9981 -11.4338 18.7143 12.9279 -8.87006 20.5537 
12.9593 -9.86522 19.825 12.9369 -7.82512 21.3561 13.0009 -6.71172 22.1943 
13.1064 -5.51307 23.0281 13.0065 -10.8303 19.2001 13.2105 -4.22476 23.8153 
13.2874 -2.8559 24.5209 13.3278 -1.4279 25.1192 13.3282 0.0266886 25.5995 
13.2878 1.4352 25.9573 13.0667 -11.699 18.8311 12.9885 -9.223 20.4122 
12.9827 -8.18677 21.1921 13.0205 -10.2122 19.7235 13.0233 -7.08625 22.0236 
13.1151 -5.90703 22.8636 13.2258 -4.63986 23.6691 13.3173 -3.2934 24.4 
13.3737 -1.88381 25.0303 13.3893 -0.435723 25.547 13.0597 -11.1578 19.1689 
13.3665 1.01444 25.955 13.0339 -8.54666 21.0367 13.046 -9.57275 20.2886 
13.0562 -7.45896 21.8549 13.1272 -6.29714 22.6965 13.2354 -5.051 23.5165 
[...]
POINT_DATA 724
VECTORS velocity double
0.823296 -0.894607 0.547974 0.772132 -0.568673 0.482352 0.872483 -1.28364 0.612179 
0.720588 -0.296284 0.410808 0.909761 -1.66313 0.671647 0.830958 -1.17234 0.519015 
0.668121 -0.063327 0.330087 0.937629 -2.04017 0.739268 0.78681 -0.891044 0.44776 
0.860166 -1.50409 0.560258 0.74381 -0.64995 0.380004 0.701685 -0.416605 0.318976 
0.619392 0.117397 0.245788 0.88624 -1.83429 0.617347 0.95673 -2.4033 0.824739 
0.804888 -1.25272 0.443617 0.661621 -0.277022 0.242226 0.757073 -0.976319 0.354942 
0.906125 -2.16637 0.688839 0.832486 -1.61185 0.493204 0.571881 0.263891 0.154658 
0.969074 -2.75837 0.944351 0.708154 -0.70624 0.270913 0.617882 -0.113654 0.163428 
0.924824 -2.50527 0.794644 0.856023 -1.96589 0.564195 0.780503 -1.36701 0.37783 
0.65916 -0.514582 0.177493 0.525454 0.379925 0.0568158 0.733714 -1.10589 0.282055 
0.975804 -3.03783 1.08219 0.87792 -2.32767 0.670025 0.805185 -1.74031 0.439371 
0.573292 0.025688 0.0767973 0.915112 -2.72322 0.858242 0.688373 -0.885473 0.192875 
0.610712 -0.335374 0.0856174 0.756013 -1.50116 0.322542 0.828519 -2.1103 0.535389 
0.981614 -3.30039 1.27325 0.478503 0.471206 -0.0506361 0.525973 0.163222 -0.0169138 
0.641186 -0.697922 0.0990843 0.929138 -3.01088 1.02673 0.710482 -1.26649 0.220037 
0.857139 -2.48973 0.688092 0.779053 -1.88217 0.40416 0.559578 -0.153286 -0.0104853 
0.664952 -1.05682 0.122669 0.877403 -2.80629 0.858597 0.803863 -2.2569 0.531974 
0.731097 -1.65052 0.281382 0.592498 -0.505819 0.00499827 0.438098 0.530015 -0.149182 
0.941292 -3.27204 1.2454 0.989259 -3.52864 1.53352 0.496858 0.133945 -0.107997 
0.684925 -1.42458 0.168958 0.617772 -0.859178 0.0249103 0.8252 -2.59535 0.693919 
0.753365 -2.02579 0.387875 0.539729 -0.270797 -0.0887451 0.895013 -3.10121 1.08098 
0.446914 0.277864 -0.205968 0.638603 -1.21284 0.0626152 0.7049 -1.79626 0.254529 
0.774633 -2.37637 0.534789 0.568839 -0.642934 -0.0717522 0.846862 -2.91293 0.909485 
0.939363 -3.43092 1.4529 1.00023 -3.68092 1.82922 0.393387 0.57486 -0.263629 
0.493311 -0.0988578 -0.174799 0.65773 -1.57262 0.131193 0.59131 -1.00104 -0.0410242 
0.725332 -2.15343 0.383555 0.797203 -2.70862 0.734848 0.884687 -3.24336 1.24176 
0.521145 -0.453925 -0.164814 0.4463 0.0520919 -0.265096 1.01563 -3.76091 2.148 
0.938462 -3.52969 1.6765 0.398775 0.323826 -0.325221 0.610796 -1.35539 0.0152446 
0.677039 -1.92971 0.241123 0.747485 -2.49436 0.563905 0.829419 -3.03463 1.02171 
0.544198 -0.801293 -0.140188 0.348973 0.59915 -0.381642 0.472302 -0.270828 -0.258784 
0.871835 -3.31951 1.3934 0.629599 -1.70879 0.107983 0.775683 -2.82017 0.813809 
0.698174 -2.27464 0.400239 0.563972 -1.14753 -0.0942451 0.495628 -0.60125 -0.238993 
0.971891 -3.65512 2.07496 0.416234 -0.0100277 -0.354736 1.04033 -3.76806 2.55162 
0.81094 -3.10835 1.13543 0.362531 0.287145 -0.430594 0.723423 -2.60247 0.619225 
0.649589 -2.05477 0.24642 0.582637 -1.49443 -0.0163226 0.912455 -3.50467 1.79637 
0.516482 -0.93844 -0.200339 0.308691 0.603865 -0.491197 0.44277 -0.353764 -0.339654 
0.754113 -2.89732 0.902337 0.85024 -3.32812 1.51331 0.672606 -2.38519 0.438973 
0.601815 -1.83814 0.103079 0.53558 -1.2808 -0.134663 0.466831 -0.703511 -0.306141 
0.387071 -0.0774438 -0.43733 0.977506 -3.63026 2.3516 1.06922 -3.68973 2.93715 
0.790115 -3.13952 1.24622 0.331779 0.218679 -0.523257 0.700227 -2.68842 0.691907 
0.623158 -2.17011 0.27223 0.554447 -1.62252 -0.0319794 0.904092 -3.48602 1.98919 
0.272554 0.593907 -0.590414 0.488015 -1.0552 -0.249323 0.41584 -0.45267 -0.408186 
1.02563 -3.58204 2.83384 0.733516 -2.94985 1.00803 0.83591 -3.32254 1.66416 
0.648335 -2.4802 0.498371 0.574734 -1.95626 0.11669 0.507268 -1.40194 -0.160884 
0.364435 -0.196378 -0.504184 0.440562 -0.82448 -0.357502 0.959706 -3.52059 2.49206 
0.28519 0.309079 -0.621575 1.10806 -3.49705 3.37352 0.775131 -3.15754 1.39388 
0.679123 -2.75685 0.78773 0.598078 -2.27227 0.318813 0.527069 -1.74025 -0.0302154 
0.393649 -0.595858 -0.458187 0.887606 -3.41341 2.12711 0.46083 -1.18057 -0.281401 
0.316586 -0.00832385 -0.593984 0.232324 0.567086 -0.700678 1.04679 -3.41811 3.15343 
0.717667 -2.98705 1.14623 0.626477 -2.56085 0.582205 0.824572 -3.28706 1.83892 
0.549164 -2.06329 0.150733 0.348362 -0.395914 -0.55045 0.480278 -1.52399 -0.167743 
0.415262 -0.96297 -0.39278 0.955961 -3.40856 2.66875 0.256217 0.215848 -0.705878 
1.14723 -3.2198 3.74868 0.662261 -2.81006 0.913936 0.764742 -3.14982 1.57082 
0.575557 -2.36244 0.389857 0.300746 -0.186435 -0.643681 0.501426 -1.8535 -0.00661876 
0.434527 -1.31093 -0.294881 0.37036 -0.758699 -0.495569 0.88709 -3.32585 2.35159 
0.195795 0.528707 -0.799346 1.02208 -3.27813 3.16774 1.10485 -3.11485 3.64203 
0.706808 -3.00159 1.31509 0.608622 -2.6274 0.69504 0.526187 -2.16207 0.209763 
0.823535 -3.22779 2.06303 0.454761 -1.64473 -0.153036 0.324342 -0.551093 -0.596032 
0.389569 -1.10541 -0.411774 0.255608 -0.0372931 -0.732261 0.956615 -3.24265 2.8823 
0.20892 0.228247 -0.812948 1.18924 -2.81595 4.09271 0.650369 -2.84307 1.07071 
0.556767 -2.44048 0.489246 0.762394 -3.11616 1.78586 0.478141 -1.96082 0.0416373 
0.408916 -1.43944 -0.288533 0.344233 -0.899494 -0.523278 0.27827 -0.37208 -0.69174 
0.892733 -3.19376 2.5971 0.156625 0.473675 -0.901985 1.04836 -3.03612 3.46216 
0.595468 -2.67597 0.837927 0.70281 -2.99065 1.5176 0.506515 -2.25035 0.296252 
0.430944 -1.75942 -0.11539 1.13788 -2.74949 3.93763 0.829677 -3.12891 2.31165 
0.225951 -0.127496 -0.797658 0.363333 -1.23458 -0.415811 0.298275 -0.704818 -0.629177 
0.98033 -3.03243 3.1791 0.175119 0.138021 -0.894602 1.22334 -2.35367 4.32583 
0.644477 -2.85187 1.25819 0.542238 -2.50231 0.61781 0.767233 -3.0468 2.02699 
0.45747 -2.05762 0.115305 0.384202 -1.55681 -0.263083 0.317576 -1.03384 -0.535356 
0.912877 -3.02025 2.885 0.248394 -0.47511 -0.741727 1.07603 -2.73248 3.72354 
0.1198 0.409709 -0.994091 0.58766 -2.702 1.01033 0.705268 -2.94682 1.74445 
0.490485 -2.32316 0.410148 0.195837 -0.221338 -0.855452 0.40906 -1.86145 -0.0556121 
0.84614 -2.98994 2.58708 1.16747 -2.33506 4.15388 0.33775 -1.35446 -0.401506 
0.269436 -0.812798 -0.657382 1.00673 -2.76964 3.44794 0.141951 0.0538786 -0.966175 
1.24679 -1.85583 4.44795 0.644595 -2.83046 1.47107 0.5324 -2.54293 0.774455 
0.779237 -2.93935 2.28305 0.439738 -2.13846 0.213456 0.936501 -2.79883 3.15317 
0.361077 -1.66207 -0.217105 0.218686 -0.571653 -0.780989 0.290353 -1.14023 -0.537566 
1.10303 -2.37946 3.93502 0.0846207 0.337585 -1.07661 0.714043 -2.86657 1.98771 
0.585358 -2.70006 1.20826 0.864196 -2.80976 2.83735 0.478436 -2.37548 0.549842 
0.165261 -0.309965 -0.905109 0.389658 -1.94803 0.0265558 1.03216 -2.46536 3.66919 
0.312983 -1.45411 -0.373132 1.18968 -1.88718 4.28198 0.241156 -0.910488 -0.673019 
0.109556 -0.0308032 -1.02783 0.794501 -2.79028 2.53051 0.650577 -2.7746 1.70243 
0.954399 -2.5523 3.35503 0.527504 -2.55745 0.955859 1.25753 -1.34468 4.46383 
0.425531 -2.20012 0.335633 0.339855 -1.74919 -0.153549 0.189463 -0.662972 -0.80879 
1.12379 -2.002 4.07396 0.264346 -1.23514 -0.524727 0.0508673 0.25819 -1.14911 
1.04134 -2.18363 3.78105 0.881535 -2.59159 3.05471 0.727094 -2.74585 2.2328 
0.588536 -2.66591 1.42608 0.135141 -0.398559 -0.944072 0.470873 -2.40377 0.713474 
0.373241 -2.01558 0.129288 0.290243 -1.541 -0.326934 0.214017 -1.00162 -0.674348 
1.19952 -1.43989 4.31518 0.0780858 -0.119116 -1.07847 1.11596 -1.74565 4.07596 
0.968449 -2.27698 3.51106 0.811636 -2.59983 2.76158 0.661265 -2.68014 1.94188 
0.527672 -2.54208 1.15792 0.415296 -2.23949 0.479772 0.161261 -0.752425 -0.822972 
1.2551 -0.847983 4.38698 0.321516 -1.82121 -0.0696745 0.240227 -1.32167 -0.494569 
0.0184463 0.172857 -1.21076 1.16866 -1.28808 4.22334 1.04808 -1.86825 3.85998 
0.89883 -2.33496 3.2438 0.743331 -2.58346 2.47107 0.105847 -0.488375 -0.970384 
0.59653 -2.59547 1.65611 0.468029 -2.40483 0.897907 0.360615 -2.06442 0.254043 
0.188535 -1.08842 -0.659009 0.270189 -1.61676 -0.260661 1.2142 -0.83489 4.28363 
0.0475308 -0.211065 -1.11678 0.982262 -1.96357 3.63749 1.11284 -1.39301 4.07496 
0.830282 -2.36848 2.9723 0.67586 -2.54511 2.1812 0.532707 -2.49337 1.37522 
0.409584 -2.25509 0.64579 0.134373 -0.840347 -0.821576 0.306719 -1.87832 0.0364447 
0.21844 -1.40053 -0.444979 1.23778 -0.321407 4.21213 -0.0125668 0.0836904 -1.26043 
1.16585 -0.871389 4.16826 0.916296 -2.04014 3.40292 1.05488 -1.5075 3.90963 
0.761975 -2.37947 2.69508 0.0775243 -0.578706 -0.982237 0.608847 -2.48625 1.89138 
0.470057 -2.37584 1.10045 0.35231 -2.0932 0.401674 0.165009 -1.17013 -0.625257 
0.253301 -1.68081 -0.172522 1.19786 -0.367953 4.13364 0.0177912 -0.305598 -1.14126 
1.11459 -0.988988 4.05167 0.99469 -1.61556 3.72541 0.849609 -2.09796 3.15557 
0.693512 -2.36865 2.41204 0.542405 -2.40849 1.60263 0.408702 -2.24418 0.832346 
0.109015 -0.924968 -0.803015 0.295933 -1.91868 0.165899 0.199437 -1.47031 -0.374295 
-0.0419213 -0.00673308 -1.29698 1.20813 0.14534 3.9762 1.15446 -0.455472 4.05371 
1.06093 -1.11851 3.91936 0.932325 -1.71194 3.52236 0.0502925 -0.667144 -0.978051 
0.781924 -2.13509 2.89607 0.624848 -2.33672 2.12411 0.476941 -2.31361 1.31718 
0.34865 -2.09882 0.571731 0.143785 -1.24466 -0.571598 0.240081 -1.73112 -0.061121 
1.17271 0.0630653 3.93151 -0.0112916 -0.400261 -1.15038 1.10876 -0.585765 3.97089 
1.00454 -1.24369 3.76727 0.867953 -1.79209 3.30157 0.713169 -2.15113 2.6254 
0.556271 -2.2849 1.83317 0.412751 -2.20314 1.03659 0.085539 -1.00385 -0.765689 
0.289575 -1.93916 0.318863 0.183772 -1.52909 -0.280662 -0.0690172 -0.0950512 -1.31937 
1.16855 0.558106 3.6995 1.13513 -0.0518001 3.88765 1.0601 -0.725853 3.87216 
0.945426 -1.35831 3.59471 0.801601 -1.8534 3.06409 0.0243043 -0.750253 -0.956614 
0.643577 -2.14608 2.3455 0.488397 -2.21495 1.54229 0.34988 -2.07744 0.762053 
0.125701 -1.31092 -0.495163 0.231052 -1.7647 0.0745948 -0.0930609 -0.177765 -1.3274 
0.172085 -1.57419 -0.162118 0.288016 -1.93579 0.494505 0.421588 -2.12808 1.25362 
0.57356 -2.12097 2.05863 1.09508 -0.192077 3.8378 1.00817 -0.862627 3.753 
0.733395 -1.89448 2.81133 0.883706 -1.45789 3.40221 1.13898 0.457033 3.68816 
0.0652107 -1.07772 -0.705065 -0.0400886 -0.490101 -1.14331 0.22671 -1.77756 0.234911 
0.111576 -1.36686 -0.392825 0.356029 -2.02468 0.969168 0.503767 -2.07713 1.76792 
0.663767 -1.91528 2.54563 0.00196354 -0.833468 -0.909477 0.819347 -1.53971 3.19027 
0.953035 -0.989632 3.6124 1.05166 -0.338334 3.77124 1.10767 0.328777 3.67808 
1.12096 0.92095 3.39675 -0.115585 -0.259892 -1.32112 0.164995 -1.60162 -0.0174258 
0.291456 -1.90383 0.690287 0.048962 -1.14494 -0.616828 0.434766 -2.01556 1.47649 
0.593059 -1.9165 2.26881 0.752639 -1.60262 2.96054 0.894705 -1.10299 3.45024 
1.00454 -0.480504 3.6837 1.0734 0.184146 3.65892 -0.0638186 -0.589473 -1.10389 
1.09746 0.814006 3.41369 0.227336 -1.76444 0.418054 0.102007 -1.40815 -0.262579 
0.366853 -1.93628 1.18711 0.522063 -1.89886 1.98454 0.683719 -1.64722 2.71388 
0.83337 -1.1998 3.26744 -0.0160228 -0.913658 -0.832114 0.953782 -0.613158 3.57417 
1.03521 0.0376575 3.62133 1.07263 0.68177 3.43365 1.06685 1.23821 3.07839 
-0.137551 -0.346138 -1.29582 0.162846 -1.6057 0.152601 0.299759 -1.8381 0.901241 
0.0371742 -1.19948 -0.499564 0.451487 -1.8629 1.69654 0.613127 -1.67294 2.45278 
0.768806 -1.28138 3.06363 0.899761 -0.732338 3.44337 0.992948 -0.103418 3.56224 
1.04404 0.538526 3.44147 -0.0844449 -0.674229 -1.0421 1.04863 1.13815 3.1134 
0.232926 -1.71959 0.619941 0.0972464 -1.42799 -0.105608 0.381683 -1.80845 1.40774 
0.541778 -1.68019 2.18117 0.701404 -1.34626 2.84027 -0.0303776 -0.977295 -0.730069 
0.841736 -0.841832 3.28994 1.01074 0.396857 3.42839 0.947335 -0.230903 3.48162 
1.0308 1.00626 3.16166 -0.157414 -0.431635 -1.24589 1.00701 1.51529 2.75019 
0.165671 -1.57992 0.343997 0.312394 -1.73389 1.1197 0.0296898 -1.23232 -0.357172 
0.470428 -1.66921 1.90277 0.631869 -1.39373 2.60004 0.77993 -0.937723 3.11399 
0.897365 -0.356851 3.38031 1.00754 0.864753 3.19447 0.973822 0.274914 3.39029 
-0.100968 -0.745231 -0.953898 0.991842 1.43745 2.78519 0.243049 -1.63739 0.833413 
0.0972186 -1.4191 0.0736424 0.399388 -1.6391 1.6204 0.561066 -1.42366 2.34645 
0.714806 -1.019 2.91684 -0.0403731 -1.02101 -0.601996 0.842943 -0.474431 3.25588 
0.932636 0.143588 3.33764 0.978925 0.76134 3.18661 0.983882 1.2902 2.87875 
-0.17373 -0.51094 -1.16646 0.173112 -1.51808 0.550111 0.328363 -1.58787 1.3354 
0.941429 1.75841 2.41352 0.0269328 -1.23827 -0.190883 0.489815 -1.43555 2.08336 
0.647159 -1.08444 2.70112 0.784308 -0.580568 3.10815 0.886684 0.0145632 3.26388 
0.94683 0.632843 3.17706 0.963205 1.21594 2.887 -0.112604 -0.799751 -0.83622 
0.935589 1.62124 2.52736 0.101947 -1.37575 0.270678 0.256869 -1.51366 1.04877 
0.418215 -1.428 1.81268 0.577819 -1.13365 2.46996 -0.045348 -1.04035 -0.447452 
0.722082 -0.67348 2.93854 0.835903 -0.107711 3.16687 0.909732 0.500482 3.14984 
0.940937 1.0922 2.9186 -0.185183 -0.578005 -1.05343 0.184535 -1.41516 0.762443 
0.918941 1.50376 2.59038 0.0291951 -1.21184 -0.00360898 0.346023 -1.39876 1.53571 
0.507377 -1.16523 2.22623 0.880631 1.94346 2.11881 0.657054 -0.752452 2.74944 
0.912832 0.959688 2.93485 0.780722 -0.21925 3.04636 0.867378 0.370612 3.10076 
-0.118646 -0.832451 -0.687545 0.110972 -1.29236 0.477955 0.877826 1.82864 2.23139 
0.272833 -1.34567 1.25358 0.898579 1.37074 2.64743 0.435834 -1.17739 1.97131 
-0.044928 -1.02949 -0.268877 0.589845 -0.816492 2.5431 0.878916 0.827544 2.9296 
0.721953 -0.318505 2.90422 0.820118 0.249131 3.02792 -0.190434 -0.625867 -0.903525 
0.867345 1.70996 2.32031 0.19849 -1.26741 0.968651 0.0361451 -1.14689 0.197788 
0.362909 -1.1676 1.70609 0.872435 1.24063 2.68072 0.520646 -0.864288 2.32076 
0.839645 0.703752 2.8996 0.660159 -0.405537 2.74229 0.768725 0.138775 2.93232 
0.817689 2.10444 1.82865 -0.118464 -0.836231 -0.508358 0.849601 1.59279 2.38321 
0.122954 -1.16407 0.683612 0.288367 -1.1333 1.43207 0.818169 2.0028 1.94679 
0.840633 1.12132 2.68651 0.44938 -0.892987 2.08324 -0.0394149 -0.981791 -0.0730333 
0.595461 -0.480522 2.56124 0.795893 0.591566 2.84571 0.713896 0.0393574 2.81614 
-0.188169 -0.646098 -0.715082 0.812463 1.89344 2.04902 0.0465332 -1.03786 0.401661 
0.825142 1.48621 2.41587 0.212422 -1.07318 1.15266 0.375621 -0.899617 1.83058 
0.527939 -0.54084 2.36151 0.804008 1.01578 2.66604 0.65554 -0.0523775 2.68016 
0.74861 0.490508 2.77098 0.753965 2.243 1.54816 -0.112006 -0.801783 -0.303015 
0.796114 1.7979 2.10829 0.135689 -0.988112 0.872556 0.299108 -0.88103 1.56377 
-0.0304071 -0.891391 0.126118 0.795074 1.39367 2.41988 0.756006 2.15849 1.66258 
0.457298 -0.583002 2.14278 0.593661 -0.134292 2.524 0.763896 0.923759 2.6236 
0.697701 0.392734 2.6784 0.754518 2.06284 1.77174 -0.177041 -0.628564 -0.487947 
0.772168 1.7185 2.13184 0.0591486 -0.88215 0.59658 0.219935 -0.835452 1.28524 
0.383144 -0.603721 1.90471 0.52805 -0.203602 2.34684 0.760975 1.32034 2.39674 
0.642953 0.299975 2.56668 0.720542 0.829797 2.56792 0.689514 2.36349 1.27637 
-0.100008 -0.716956 -0.0793374 0.73839 1.98916 1.82227 -0.0171058 -0.761769 0.323241 
0.305237 -0.600256 1.64774 0.138117 -0.762926 0.996865 0.458291 -0.256315 2.14741 
0.742368 1.66931 2.11429 0.584029 0.214426 2.43419 0.67354 0.736494 2.49635 
0.72449 1.23873 2.3681 0.689657 2.30366 1.3685 0.695779 2.21223 1.50073 
-0.155565 -0.559526 -0.223009 0.710642 1.96676 1.7961 0.223567 -0.571149 1.37311 
0.383826 -0.289877 1.92433 0.520702 0.13981 2.27943 0.0524396 -0.668839 0.692919 
0.622289 0.645055 2.40663 0.711615 1.60454 2.10269 0.684935 1.15402 2.3284 
0.623921 2.46957 1.01084 -0.0545166 -0.599033 0.265484 0.669113 2.21241 1.45945 
0.304041 -0.302743 1.67602 0.452423 0.0785263 2.1005 0.137475 -0.518712 1.07888 
0.566533 0.559712 2.29624 0.684648 1.91892 1.79465 0.64153 1.06515 2.27589 
0.678458 1.53568 2.08401 0.631949 2.39338 1.15479 -0.127767 -0.444345 0.030033 
0.0411797 -0.466509 0.734711 0.378638 0.0319434 1.89558 0.647075 2.17811 1.46558 
0.217638 -0.295753 1.39815 0.505886 0.482751 2.16335 0.593705 0.978422 2.20539 
0.642425 1.45617 2.06088 0.656479 1.87045 1.78543 0.566415 2.551 0.786541 
-0.0383836 -0.411301 0.441463 0.607313 2.37538 1.15065 0.298642 -0.000766952 1.66221 
0.120328 -0.278333 1.07328 0.440027 0.415537 2.00657 0.541154 0.895292 2.11525 
0.602337 1.37473 2.02401 0.62184 2.15245 1.45315 0.627094 1.8042 1.78407 
0.570856 2.50274 0.893741 0.211531 -0.0245438 1.39639 0.368732 0.358493 1.82474 
-0.0910383 -0.26051 0.29424 0.57909 2.37788 1.10905 0.483628 0.819435 2.00315 
0.557592 1.2923 1.97085 0.594183 1.73407 1.77292 0.022689 -0.21041 0.743655 
0.598178 2.10099 1.46694 0.507234 2.62476 0.563977 0.530966 2.54378 0.775174 
0.122092 -0.0229772 1.11207 0.292413 0.309156 1.61864 0.421262 0.75128 1.86906 
0.507823 1.21439 1.89724 0.557094 1.65699 1.75183 0.559641 2.33995 1.13349 
0.571475 2.04662 1.47247 0.213557 0.276326 1.3936 -0.0549553 -0.0504936 0.501837 
0.354606 0.690237 1.71416 0.514694 2.51834 0.807256 0.453043 1.14378 1.80178 
0.514825 1.58143 1.71196 0.541819 1.97841 1.4787 0.0427447 0.0607642 0.859097 
0.53683 2.30573 1.1423 0.457411 2.67975 0.383091 0.13496 0.269752 1.15841 
0.470268 2.63601 0.52235 0.285261 0.639051 1.5416 0.393619 1.07756 1.68636 
0.506932 1.90941 1.46811 0.514126 2.24822 1.17195 0.467223 1.51323 1.6494 
0.492271 2.50896 0.798388 0.21468 0.603077 1.3545 -0.0145169 0.224675 0.68416 
0.330011 1.01677 1.55109 0.47686 2.46119 0.852612 0.486191 2.18898 1.18568 
0.466605 1.84679 1.43465 0.414662 1.44889 1.56691 0.0683605 0.383656 0.95038 
0.438027 2.66029 0.445186 0.404897 2.73112 0.199475 0.144378 0.584733 1.15787 
0.262602 0.961648 1.39631 0.433341 2.61818 0.539259 0.455041 2.41453 0.884781 
0.452598 2.13744 1.17394 0.357698 1.38358 1.46757 0.420941 1.78844 1.38037 
0.190882 0.914954 1.21927 0.0268909 0.56299 0.81284 0.361245 2.76909 0.0529638 
0.385419 2.72509 0.243337 0.416864 2.58472 0.585837 0.296001 1.31765 1.34916 
0.426769 2.38013 0.882631 0.414235 2.08443 1.14713 0.370906 1.72932 1.31004 
0.107181 0.77268 1.01975 0.376058 2.7021 0.309981 0.228301 1.24251 1.21039 
0.395833 2.33712 0.87792 0.390932 2.57216 0.575467 0.31792 1.66599 1.22787 
0.370075 2.0313 1.1011 0.149734 1.1218 1.04731 0.317173 2.80345 -0.0883524 
0.334989 2.77731 0.0622203 0.062146 0.920009 0.860656 0.26174 1.59507 1.13388 
0.360131 2.28361 0.866227 0.366011 2.54498 0.580828 0.34715 2.71342 0.26561 
0.321732 1.98004 1.03657 0.202951 1.49851 1.03659 0.339507 2.49635 0.60137 
0.326214 2.70422 0.267485 0.316569 2.23946 0.820495 0.302191 2.80066 -0.0160785 
0.271828 1.91715 0.96793 0.146496 1.41616 0.928276 0.0864362 1.23982 0.836032 
0.273458 2.83355 -0.219808 0.308861 2.66446 0.318031 0.305744 2.45014 0.593321 
0.219041 1.83629 0.894427 0.268529 2.19534 0.755392 0.276892 2.81271 -0.0559759 
0.163335 1.738 0.813277 0.282761 2.63083 0.327667 0.27207 2.78081 0.0405824 
0.236134 2.85552 -0.322529 0.262394 2.41207 0.545567 0.105151 1.58932 0.739694 
0.221348 2.12536 0.702514 0.252781 2.58789 0.32871 0.24917 2.76558 0.0456065 
0.231369 2.84804 -0.214016 0.168866 2.0151 0.654282 0.213499 2.37312 0.474232 
0.204816 2.8702 -0.398126 0.114758 1.89583 0.593559 0.225942 2.73892 0.0552723 
0.209508 2.84704 -0.224762 0.210842 2.55646 0.27647 0.169359 2.24528 0.480376 
0.201545 2.69642 0.0722922 0.173304 2.8794 -0.458056 0.187938 2.83798 -0.230645 
0.117433 2.16095 0.413912 0.159869 2.43087 0.28732 0.161537 2.56985 0.141578 
0.171023 2.81322 -0.20543 0.156974 2.68734 -0.0221594 0.148478 2.87891 -0.483033 
0.115584 2.37989 0.21968 0.152501 2.77669 -0.177976 0.129241 2.86686 -0.471849 
0.111659 2.56082 0.0172047 0.11612 2.83809 -0.418154 0.108654 2.68942 -0.160038 
0.109203 2.7796 -0.308451 
