# vtk DataFile Version 3.0
vtk output
ASCII
DATASET POLYDATA
POINTS 724 float
10.4915 -10.9717 12.6119 10.5853 -11.5821 12.4382 10.4234 -10.2743 12.9229 
10.6983 -12.1161 12.377 10.3936 -9.61686 13.3124 10.5447 -10.5151 13.1134 
10.8347 -12.5964 12.4102 10.3938 -8.97532 13.7713 10.635 -11.0377 12.9838 
10.5187 -9.93597 13.48 10.7331 -11.4989 12.9194 10.8296 -11.9512 12.8561 
10.9741 -12.9862 12.5199 10.5022 -9.3638 13.8597 10.4196 -8.35604 14.28 
10.651 -10.4175 13.5257 10.949 -12.2476 12.9712 10.7622 -10.9382 13.4511 
10.5083 -8.79078 14.2947 10.6237 -9.78712 13.9426 11.1218 -13.3168 12.693 
10.4696 -7.7326 14.8501 10.8826 -11.4562 13.3954 11.0764 -12.5919 13.0697 
10.5264 -8.19538 14.7607 10.6122 -9.16776 14.3782 10.7465 -10.2522 13.9707 
11.0227 -11.8467 13.4937 11.2746 -13.5912 12.9213 10.86 -10.7458 13.9214 
10.5286 -7.21117 15.363 10.6156 -8.52743 14.8481 10.7234 -9.59275 14.4268 
11.214 -12.8971 13.2259 10.6015 -7.80233 15.2735 10.9812 -11.1738 13.9338 
11.1656 -12.2181 13.6088 10.8367 -10.0443 14.4396 10.7133 -8.93455 14.8894 
10.6049 -6.66864 15.9233 11.4348 -13.8186 13.2066 11.3597 -13.2023 13.4098 
11.1174 -11.5511 14.0243 10.6442 -7.24543 15.7511 10.9491 -10.4902 14.4299 
10.7042 -8.24111 15.3434 10.8181 -9.36382 14.9176 11.3177 -12.5998 13.7409 
11.0728 -10.8979 14.4664 10.7245 -7.63647 15.7979 10.8072 -8.68145 15.3824 
10.9262 -9.80147 14.9308 11.2607 -11.9407 14.1183 11.5752 -13.9744 13.4909 
10.7092 -6.68171 16.279 10.698 -6.10309 16.5279 11.4816 -13.1841 13.764 
11.0392 -10.2321 14.942 11.2094 -11.2902 14.5396 10.8164 -8.04112 15.8482 
10.9122 -9.11974 15.408 11.4115 -12.4131 14.1648 10.7729 -7.02184 16.3152 
11.6278 -13.4987 13.9527 11.1638 -10.6425 14.9822 11.02 -9.55619 15.425 
10.913 -8.46264 15.8783 11.3538 -11.7203 14.5936 10.8452 -7.3966 16.3415 
10.8053 -6.24564 16.8234 10.7924 -5.58776 17.0909 11.7324 -14.1049 13.8428 
11.547 -12.7686 14.269 11.1334 -9.98406 15.4461 11.2999 -11.0583 15.0321 
11.0143 -8.8917 15.899 10.9285 -7.80243 16.3614 10.8751 -6.64585 16.8531 
11.4968 -12.1028 14.6834 11.6852 -13.0876 14.4163 10.8846 -5.11448 17.6125 
10.9042 -5.85915 17.3361 11.7911 -13.6299 14.3224 11.257 -10.4043 15.4803 
11.1199 -9.32183 15.9175 11.0204 -8.22628 16.3755 10.9507 -7.08929 16.8546 
11.4417 -11.4559 15.1012 11.8898 -14.1919 14.227 11.6436 -12.4773 14.7917 
10.9811 -6.35727 17.3401 11.2321 -9.74777 15.9402 11.0358 -7.5373 16.8558 
11.1187 -8.65815 16.3881 11.3908 -10.8119 15.5323 11.5908 -11.8576 15.1813 
10.9807 -5.25615 17.8619 11.8016 -13.0015 14.8159 10.9937 -4.58166 18.2026 
11.0618 -6.84165 17.3325 11.9293 -13.5939 14.7374 11.128 -7.98446 16.8597 
11.2226 -9.08804 16.4049 11.3538 -10.1643 15.9758 11.0355 -5.69739 17.8331 
11.5347 -11.2262 15.589 12.0339 -14.2344 14.6032 11.7516 -12.3516 15.2117 
11.149 -7.30947 17.3283 11.1041 -6.17051 17.8131 11.2255 -8.4238 16.8703 
11.3341 -9.51137 16.4297 11.4867 -10.5833 16.0173 11.6907 -11.6928 15.6191 
11.9127 -12.9028 15.2083 11.093 -4.90294 18.3751 11.0955 -4.10531 18.7304 
11.183 -6.64482 17.7975 12.053 -13.4925 15.1534 11.2411 -7.75806 17.3348 
11.329 -8.85434 16.8882 11.4549 -9.9341 16.4599 11.1528 -5.44658 18.3122 
12.1655 -14.2435 14.9625 11.6311 -11.029 16.0449 11.8507 -12.1918 15.6299 
11.1855 -4.28529 18.9299 11.2697 -7.09393 17.8008 11.224 -5.96273 18.2724 
11.3376 -8.19462 17.3486 11.4401 -9.28052 16.9112 11.586 -10.3689 16.4852 
12.0062 -12.7025 15.629 11.7832 -11.4878 16.0634 11.224 -4.76688 18.8355 
12.196 -13.6965 15.4041 11.2146 -3.56822 19.3254 11.3065 -6.41979 18.2711 
11.3601 -7.53192 17.8112 11.4401 -8.62408 17.3669 11.5595 -9.71063 16.9329 
11.9357 -11.944 16.0792 11.2792 -5.29977 18.7555 11.7268 -10.8085 16.5069 
12.1485 -13.0854 15.7141 12.3142 -14.2214 15.3857 11.3012 -3.90354 19.441 
11.3931 -6.8599 18.2785 11.4549 -7.96301 17.8263 11.354 -5.74716 18.7505 
11.5502 -9.05214 17.386 12.0814 -12.3463 16.1279 11.6878 -10.142 16.9543 
11.875 -11.2439 16.5301 11.3378 -4.5777 19.2555 12.3178 -13.5439 15.8394 
11.3281 -3.07203 19.8737 11.4824 -7.29265 18.2898 11.4355 -6.18136 18.7543 
11.5559 -8.39054 17.8428 12.2287 -12.7676 16.1765 11.6677 -9.47934 17.4054 
11.8257 -10.5694 16.9787 12.0256 -11.6551 16.5709 11.4075 -5.04322 19.2415 
12.4506 -14.1721 15.7901 11.4071 -3.92549 19.7412 11.424 -3.25189 20.0764 
11.5205 -6.61223 18.7606 11.5756 -7.72127 18.3032 11.664 -8.81597 17.8598 
11.4844 -5.48014 19.2413 11.794 -9.90351 17.4277 12.1786 -12.0731 16.614 
11.973 -10.9846 17.0139 12.3671 -13.0743 16.3074 11.4726 -4.34513 19.7442 
12.4785 -13.5974 16.2363 11.4553 -2.53022 20.4701 11.608 -7.04106 18.7694 
11.675 -8.14705 18.3177 11.5657 -5.91228 19.2421 11.7801 -9.23847 17.8792 
11.9308 -10.3213 17.4579 12.1276 -11.4019 17.0536 12.3291 -12.4363 16.7051 
11.542 -4.76593 19.7407 12.5972 -14.0896 16.2434 11.5239 -3.54242 20.2381 
11.6998 -7.46862 18.7798 11.6496 -6.34362 19.2441 11.7816 -8.57011 18.3339 
11.9054 -9.65781 17.9042 11.5528 -2.79133 20.6354 11.6177 -5.19241 19.7352 
12.4844 -12.9236 16.7307 12.0792 -10.7399 17.4928 12.2843 -11.7967 17.1182 
11.5956 -3.9752 20.2473 12.6118 -13.4464 16.6987 11.579 -2.01962 21.0303 
11.7362 -6.77546 19.2479 11.7977 -7.89387 18.7924 11.6978 -5.62491 19.7291 
11.8965 -8.99078 18.354 12.0421 -10.0784 17.9339 12.236 -11.1507 17.5408 
11.6685 -4.41829 20.2367 12.4463 -12.2575 17.1528 11.6434 -3.15198 20.7344 
12.7332 -13.9842 16.687 11.8271 -7.20512 19.2554 11.7809 -6.06345 19.7236 
11.9028 -8.31715 18.8078 12.602 -12.7611 17.164 12.0214 -9.41284 18.3782 
11.7467 -4.86564 20.2224 11.6766 -2.34037 21.1641 12.1912 -10.4983 17.9706 
12.3996 -11.5997 17.5737 11.7176 -3.60341 20.7354 12.7379 -13.301 17.142 
11.7028 -1.53139 21.5665 11.8673 -6.49997 19.7234 11.9238 -7.63282 19.266 
11.8286 -5.32329 20.2049 12.0166 -8.74115 18.8266 11.7938 -4.07058 20.7156 
12.1582 -9.83796 18.4067 12.5627 -12.0835 17.5923 12.351 -10.9416 17.9991 
11.7627 -2.75561 21.2203 12.8609 -13.8573 17.1277 11.9135 -5.77362 20.1958 
11.9577 -6.93387 19.7283 11.8755 -4.55874 20.6851 12.0273 -8.06036 19.2796 
12.7188 -12.6018 17.5944 12.1409 -9.16891 18.8485 11.8391 -3.24097 21.2047 
12.3078 -10.2792 18.4305 11.8009 -1.9023 21.6728 12.5154 -11.4117 18.0178 
12.858 -13.1477 17.5801 11.9615 -5.02836 20.6685 12.001 -6.21697 20.1941 
11.9197 -3.77979 21.1559 12.0531 -7.36679 19.7366 11.8297 -1.06359 22.0851 
12.1399 -8.49052 19.2955 12.2774 -9.60918 18.8675 12.6781 -11.9101 18.0266 
11.8831 -2.38188 21.6844 12.4676 -10.7401 18.4467 12.9814 -13.7101 17.568 
11.9616 -3.0031 21.6071 12.0079 -4.27125 21.1353 12.049 -5.48362 20.6614 
12.0913 -6.65699 20.1972 12.8333 -12.4341 18.0267 12.1551 -7.80077 19.7475 
12.2632 -8.92975 19.3104 12.4266 -10.0648 18.8812 12.6311 -11.2235 18.4563 
11.9292 -1.50815 22.156 12.973 -12.9792 18.0201 12.0017 -2.25435 22.0251 
12.0525 -3.51151 21.5902 12.0978 -4.73775 21.1268 12.1375 -5.93127 20.6605 
12.1855 -7.09668 20.2036 12.2659 -8.2403 19.7582 12.7919 -11.7286 18.4615 
11.9593 -0.622107 22.5818 12.3988 -9.38185 19.321 12.5853 -10.5372 18.8892 
13.0948 -13.5439 18.0089 12.049 -1.58125 22.4135 12.0969 -2.75615 22.0291 
12.1456 -3.98394 21.5862 12.1873 -5.19222 21.124 12.9449 -12.2531 18.4638 
12.2276 -6.37659 20.6632 12.2855 -7.5386 20.211 12.3878 -8.68923 19.7664 
12.7465 -11.0277 18.8948 12.5469 -9.84735 19.3275 12.0683 -0.881577 22.7369 
13.0834 -12.7935 18.4661 12.1927 -3.22498 22.0366 12.1471 -2.01655 22.4581 
12.2374 -4.44255 21.5851 12.2764 -5.64192 21.1247 12.3202 -6.82266 20.6678 
12.3943 -7.98616 20.2172 12.9044 -11.5354 18.9006 12.522 -9.14984 19.7711 
12.7034 -10.3271 19.3315 12.1107 -0.152656 23.1206 13.201 -13.3614 18.449 
12.1876 -1.23565 22.8666 12.2873 -3.68344 22.0417 12.243 -2.46491 22.4795 
12.3276 -4.89529 21.5858 13.0541 -12.0574 18.9085 12.3656 -6.09126 21.1277 
12.4179 -7.27103 20.6725 12.5143 -8.44253 20.2205 12.8614 -10.8217 19.3362 
12.6681 -9.62236 19.7734 12.2225 -0.489654 23.2374 13.19 -12.5896 18.9219 
12.2904 -1.67569 22.9121 12.3386 -2.91649 22.4923 12.3797 -4.13767 22.0446 
12.4167 -5.34675 21.5882 12.4563 -6.54223 21.1311 12.5244 -7.72492 20.6753 
13.0153 -11.3299 19.3453 12.6466 -8.9094 20.2213 12.8215 -10.1071 19.7755 
13.299 -13.1658 18.8848 12.2632 0.276625 23.6254 12.3348 -0.888015 23.3227 
12.389 -2.12915 22.9341 12.4329 -3.36969 22.4997 13.1609 -11.8476 19.3618 
12.4701 -4.59038 22.048 12.5048 -5.79924 21.5918 12.5516 -6.9958 21.134 
12.6425 -8.18666 20.6756 12.9751 -10.6042 19.7817 12.7898 -9.38672 20.2211 
12.3764 -0.108055 23.7152 13.2927 -12.3677 19.391 12.4385 -1.33336 23.3621 
12.4859 -2.58551 22.9474 12.5252 -3.82303 22.5052 12.5586 -5.04401 22.0522 
12.5933 -6.25396 21.595 12.656 -7.45441 21.1348 13.124 -11.1119 19.7959 
12.7723 -8.65798 20.674 12.9384 -9.87398 20.2232 13.3869 -12.9624 19.3079 
12.419 0.675395 24.1092 12.486 -0.535088 23.7753 12.5386 -1.79091 23.3836 
12.5807 -3.04248 22.9565 12.6152 -4.27727 22.5109 13.2641 -11.6253 19.8234 
12.6451 -5.49916 22.0569 12.6865 -6.71142 21.5971 12.7718 -7.9201 21.1332 
13.0858 -10.3708 20.232 12.9109 -9.13751 20.6729 13.4629 -12.7582 19.707 
13.0531 -9.62445 20.6763 12.8981 -8.3934 21.131 12.7886 -7.17351 21.5972 
12.7317 -5.9568 22.0608 12.5901 -0.989705 23.8074 12.6365 -2.25108 23.3983 
12.7025 -4.73311 22.5173 12.6733 -3.49894 22.9647 12.5327 0.260785 24.1791 
13.2273 -10.8735 20.2526 13.3918 -12.1315 19.8757 13.031 -8.8725 21.1307 
13.1927 -10.1172 20.689 12.9015 -7.64124 21.5954 12.8225 -6.41745 22.063 
12.7871 -5.19046 22.5235 13.3594 -11.3732 20.2936 12.7628 -3.95589 22.9736 
12.7322 -2.71058 23.4107 12.6917 -1.45191 23.8283 12.6409 -0.185009 24.2223 
12.5792 1.04776 24.5795 13.5332 -12.5391 20.111 13.1655 -9.35652 21.1368 
13.0235 -8.1145 21.5936 13.3251 -10.6092 20.7184 12.922 -6.88189 22.0633 
12.8714 -5.65091 22.5285 12.8483 -4.4134 22.9831 12.8247 -3.1692 23.4232 
12.7911 -1.91453 23.8462 12.7455 -0.647816 24.2484 13.4797 -11.846 20.3753 
12.6932 0.61748 24.6354 13.1498 -8.59139 21.5955 13.2959 -9.8417 21.1553 
13.0314 -7.35001 22.0627 12.9598 -6.11403 22.532 12.9303 -4.87391 22.9912 
[...]
POINT_DATA 724
VECTORS velocity double
1.18077 -0.0268437 1.76564 0.99771 0.428594 1.62103 1.38604 -0.571126 1.9108 
0.832158 0.810545 1.47252 1.57649 -1.10074 2.03584 1.25301 -0.330053 1.72746 
0.674977 1.143 1.31208 1.75825 -1.62104 2.15263 1.08076 0.0891915 1.57739 
1.40811 -0.779195 1.81352 0.926869 0.447677 1.43567 0.784533 0.778292 1.30871 
0.5361 1.40934 1.15131 1.56762 -1.23567 1.91324 1.92684 -2.11013 2.2637 
1.19999 -0.33826 1.57537 0.659949 1.01334 1.15586 1.01187 0.0958976 1.39217 
1.72263 -1.68674 2.01104 1.36356 -0.821611 1.66173 0.404281 1.63733 0.980815 
2.08535 -2.56873 2.37531 0.830955 0.507819 1.21768 0.526885 1.26782 0.999072 
1.88566 -2.14449 2.1315 1.52893 -1.30349 1.76186 1.15848 -0.389537 1.42477 
0.666719 0.830435 1.02375 0.277041 1.83409 0.798892 0.968723 0.0349912 1.22852 
2.20618 -2.91002 2.46983 1.70353 -1.79566 1.8863 1.32377 -0.886394 1.50915 
0.395423 1.4964 0.828328 1.93838 -2.36961 2.121 0.797188 0.399537 1.04135 
0.509892 1.1272 0.833853 1.12077 -0.462022 1.2713 1.49821 -1.38707 1.62311 
2.31755 -3.20919 2.5694 0.148486 2.01044 0.598029 0.259882 1.71979 0.645499 
0.630144 0.725368 0.841007 2.07761 -2.73347 2.2484 0.932945 -0.0613574 1.06121 
1.70109 -1.91681 1.79911 1.28869 -0.964623 1.3618 0.350722 1.41857 0.637823 
0.754611 0.303393 0.854477 1.86483 -2.33689 1.95071 1.47276 -1.47222 1.4989 
1.0842 -0.546184 1.11476 0.463409 1.04611 0.64188 0.0370503 2.14653 0.41107 
2.20004 -3.03898 2.37171 2.41509 -3.4464 2.67314 0.170034 1.78735 0.455066 
0.889451 -0.145806 0.884811 0.57799 0.650023 0.643063 1.64319 -1.92173 1.64501 
1.25235 -1.03735 1.21662 0.290498 1.39375 0.452904 2.01253 -2.70178 2.09943 
0.0314838 2.00636 0.265613 0.701061 0.231941 0.659644 1.04012 -0.613918 0.951801 
1.42042 -1.49722 1.34572 0.400418 1.00371 0.439174 1.80887 -2.33079 1.80902 
2.24111 -3.16214 2.39928 2.48484 -3.58621 2.76455 -0.087983 2.28257 0.188599 
0.147994 1.6531 0.27995 0.836412 -0.206989 0.701869 0.514603 0.601713 0.438206 
1.19972 -1.07132 1.05623 1.59092 -1.92876 1.50427 2.02119 -2.7797 2.07089 
0.237587 1.31074 0.243516 0.0100752 1.88374 0.0997067 2.53159 -3.64622 2.84326 
2.25465 -3.2032 2.40521 -0.108447 2.1598 0.0174787 0.638641 0.184687 0.460988 
0.983719 -0.650922 0.778889 1.36684 -1.51014 1.19752 1.78644 -2.36343 1.72855 
0.337225 0.944341 0.225271 -0.214625 2.40451 -0.0487536 0.0796343 1.59784 0.0498605 
1.99076 -2.7591 2.00199 0.774044 -0.241707 0.514276 1.54879 -1.93584 1.38915 
1.14207 -1.08575 0.896157 0.447883 0.55606 0.228389 0.163344 1.27391 0.0165053 
2.36128 -3.35911 2.5768 -0.0872147 1.93261 -0.122352 2.56222 -3.63208 2.92011 
1.73511 -2.32027 1.6204 -0.222816 2.23863 -0.224858 1.31186 -1.50417 1.05761 
0.921227 -0.666071 0.60539 0.571091 0.151863 0.26043 2.14347 -3.01288 2.23061 
0.261388 0.916634 0.00382743 -0.332112 2.50505 -0.27839 -0.0147553 1.62963 -0.177007 
1.48593 -1.88529 1.25649 1.90047 -2.61721 1.85277 1.07937 -1.07673 0.738212 
0.706442 -0.257102 0.326891 0.372904 0.534942 0.0160527 0.0748761 1.28678 -0.207993 
-0.183106 1.97646 -0.343343 2.32815 -3.255 2.54446 2.56868 -3.54646 2.97333 
1.6517 -2.20351 1.4744 -0.325541 2.28763 -0.460041 1.24386 -1.45747 0.909537 
0.853066 -0.657931 0.432605 0.497008 0.142317 0.0597996 2.07367 -2.8714 2.1293 
-0.440043 2.588 -0.496276 0.178435 0.916248 -0.214786 -0.102136 1.64452 -0.39742 
2.39177 -3.25077 2.69197 1.40749 -1.79069 1.11 1.81648 -2.46898 1.7212 
1.00798 -1.03636 0.577474 0.632753 -0.24801 0.14031 0.292628 0.535414 -0.194007 
-0.262384 1.97181 -0.558877 -0.0057434 1.2809 -0.425149 2.19356 -2.98261 2.35208 
-0.45405 2.44907 -0.663489 2.55049 -3.36911 3.0086 1.57022 -2.07285 1.33934 
1.16706 -1.37876 0.757736 0.778225 -0.622518 0.259895 0.418423 0.15406 -0.137749 
-0.174439 1.61578 -0.611289 1.95373 -2.63776 1.95395 0.098025 0.91222 -0.428896 
-0.399314 2.21612 -0.719757 -0.563087 2.67301 -0.751636 2.33805 -3.04833 2.65417 
1.32798 -1.67644 0.970637 0.930801 -0.969212 0.417734 1.71817 -2.27886 1.57532 
0.554658 -0.216135 -0.0429595 -0.323513 1.89812 -0.781003 0.21258 0.54279 -0.398604 
-0.0835892 1.26416 -0.64262 2.09424 -2.75524 2.22041 -0.55656 2.48376 -0.908291 
2.50924 -3.13446 3.01256 1.08849 -1.27882 0.612565 1.48218 -1.9117 1.20307 
0.699912 -0.564538 0.091739 -0.46614 2.16694 -0.938876 0.338773 0.179634 -0.329195 
0.0177472 0.91171 -0.64007 -0.250344 1.581 -0.838436 1.86145 -2.42286 1.83239 
-0.677345 2.74429 -0.994326 2.18136 -2.74925 2.4198 2.32802 -2.83001 2.72109 
1.24532 -1.53692 0.835873 0.852528 -0.881876 0.266049 0.475533 -0.167202 -0.218774 
1.6311 -2.0842 1.45627 0.132007 0.560876 -0.597618 -0.407824 1.8789 -1.01907 
-0.164924 1.25518 -0.863272 -0.593737 2.372 -1.10481 1.97386 -2.46653 2.0651 
-0.697175 2.60838 -1.17372 2.43764 -2.80942 2.98045 1.00869 -1.1567 0.475322 
0.621436 -0.488419 -0.0669928 1.39907 -1.73652 1.08384 0.258853 0.219784 -0.512625 
-0.0649081 0.924045 -0.848676 -0.337898 1.57944 -1.07017 -0.552861 2.13361 -1.19603 
1.7621 -2.17377 1.70814 -0.802188 2.81553 -1.2643 2.11258 -2.49609 2.36516 
0.77386 -0.774015 0.123771 1.1651 -1.37968 0.714528 0.396421 -0.101129 -0.385071 
0.0499974 0.594803 -0.790462 2.24187 -2.50312 2.65474 1.54288 -1.86495 1.34432 
-0.697436 2.41281 -1.34543 -0.252675 1.2705 -1.08301 -0.499556 1.87359 -1.26528 
1.90191 -2.21909 2.00055 -0.813779 2.65861 -1.44043 2.34505 -2.44636 2.91097 
0.929845 -1.01484 0.349463 0.542848 -0.392648 -0.215818 1.31684 -1.54034 0.975179 
0.178001 0.278212 -0.687901 -0.151184 0.957558 -1.05255 -0.429907 1.59445 -1.30135 
1.68838 -1.93872 1.6343 -0.657881 2.17281 -1.44156 2.03192 -2.20587 2.29589 
-0.921262 2.87857 -1.52554 0.695548 -0.645746 -0.00785069 1.08499 -1.20093 0.60272 
0.316788 -0.0150795 -0.541964 -0.802976 2.45603 -1.58872 -0.0342476 0.649622 -0.97628 
1.46787 -1.64347 1.26187 2.14694 -2.15571 2.57267 -0.343255 1.30412 -1.29768 
-0.601438 1.91387 -1.50241 1.82452 -1.94723 1.93137 -0.926836 2.71126 -1.69516 
2.23378 -2.05563 2.80511 0.850964 -0.851432 0.23319 0.464085 -0.275931 -0.354618 
1.23871 -1.33036 0.880889 0.0957772 0.357906 -0.85468 1.61133 -1.68275 1.55978 
-0.239352 1.01072 -1.24895 -0.762607 2.2202 -1.67997 -0.527907 1.6414 -1.52468 
1.94423 -1.89318 2.21662 -1.03633 2.93606 -1.78085 1.00602 -1.00362 0.501027 
0.617071 -0.495937 -0.129839 1.38517 -1.39783 1.17101 0.236342 0.0926337 -0.68958 
-0.909232 2.50638 -1.82811 -0.119725 0.725001 -1.15327 1.73968 -1.65542 1.85097 
-0.437186 1.36277 -1.504 2.03935 -1.7879 2.46598 -0.703046 1.96632 -1.73008 
-1.03695 2.764 -1.94215 1.15488 -1.09573 0.783251 0.772173 -0.667609 0.125851 
1.5167 -1.40149 1.45456 0.384977 -0.137698 -0.483841 2.10541 -1.6462 2.66323 
0.0130064 0.458332 -1.01164 -0.329133 1.08564 -1.43596 -0.866157 2.2745 -1.91038 
1.84511 -1.56395 2.11511 -0.625368 1.70223 -1.73737 -1.1478 2.98958 -2.0303 
1.62569 -1.34584 1.71096 1.29069 -1.12483 1.06351 0.923318 -0.78271 0.400292 
0.538409 -0.325284 -0.242943 -1.01398 2.55954 -2.06182 0.155837 0.220944 -0.827025 
-0.205554 0.820401 -1.31981 -0.530013 1.43599 -1.69856 -0.802717 2.02701 -1.94744 
1.91432 -1.40574 2.32198 -1.14419 2.81607 -2.18276 1.70691 -1.24415 1.92247 
1.40685 -1.093 1.32428 1.06403 -0.836578 0.678693 0.690987 -0.46127 0.022345 
0.305766 0.0210579 -0.603791 -0.0693647 0.577982 -1.15763 -0.967193 2.33291 -2.13203 
1.96503 -1.23463 2.49134 -0.417299 1.17563 -1.61041 -0.720286 1.77258 -1.93792 
-1.25562 3.04052 -2.27299 1.74358 -1.09028 2.05338 1.49881 -1.00739 1.55119 
1.18834 -0.829294 0.945616 0.836414 -0.539507 0.298361 -1.11634 2.61473 -2.28867 
0.458352 -0.133223 -0.350105 0.0759135 0.368244 -0.953989 -0.289346 0.931217 -1.47329 
-0.899191 2.0935 -2.15354 -0.619838 1.52 -1.87965 1.79746 -0.979483 2.20659 
-1.24869 2.86842 -2.41699 1.29195 -0.765912 1.18773 1.55711 -0.866377 1.72278 
0.968708 -0.557929 0.570395 0.607433 -0.23429 -0.0785872 0.226488 0.199191 -0.715363 
-0.149807 0.713787 -1.29118 -1.06518 2.3952 -2.34414 -0.502143 1.27749 -1.77058 
-0.811636 1.85069 -2.12547 1.79615 -0.777794 2.26771 -1.35921 3.09006 -2.50674 
1.60837 -0.715266 1.8807 1.08306 -0.518929 0.824868 1.36881 -0.649378 1.38923 
0.746816 -0.278177 0.1964 -1.21609 2.67284 -2.50786 0.377366 0.0780093 -0.451775 
-0.00258304 0.53244 -1.07006 -0.369904 1.05519 -1.61263 -0.991978 2.16582 -2.3476 
-0.705682 1.61331 -2.04629 1.6348 -0.553209 1.98713 -1.35075 2.92273 -2.64485 
1.42901 -0.503254 1.56279 1.17511 -0.427561 1.04872 0.871244 -0.26522 0.460993 
0.522351 0.0101354 -0.176898 0.147854 0.394494 -0.818473 -0.227502 0.864054 -1.41172 
-1.15976 2.46237 -2.54558 -0.582897 1.39013 -1.91576 -0.898609 1.93611 -2.29879 
-1.4575 3.13899 -2.72848 1.62558 -0.350639 2.0277 1.46531 -0.336066 1.68982 
1.24808 -0.299391 1.24215 0.976151 -0.199053 0.701976 -1.313 2.73551 -2.71803 
0.655579 -0.00253407 0.0948713 0.29622 0.305517 -0.547926 -0.0791583 0.712014 -1.1753 
-0.446795 1.19168 -1.73765 -1.08052 2.24441 -2.52836 -0.786708 1.71519 -2.19738 
1.47534 -0.153876 1.7635 -1.45078 2.98142 -2.86603 1.29731 -0.142789 1.39181 
1.06195 -0.0919095 0.914411 0.772149 0.0377276 0.349957 0.436391 0.268876 -0.272776 
0.0702329 0.605073 -0.91357 -0.302139 1.02796 -1.51942 -1.25031 2.53519 -2.73462 
-0.659005 1.51309 -2.04532 -0.980148 2.02811 -2.45623 -1.54851 3.18723 -2.93329 
1.45399 0.0490502 1.77486 1.32094 0.0327133 1.49065 1.1253 0.0470376 1.08723 
0.870233 0.122171 0.579591 0.563124 0.28386 -0.00690448 -1.40675 2.80445 -2.91755 
0.215203 0.546978 -0.639256 -0.153533 0.905605 -1.27011 -0.519543 1.33995 -1.84802 
-1.16293 2.32761 -2.69288 -0.862113 1.82517 -2.33175 -1.62986 3.23378 -3.11577 
-1.05526 2.12626 -2.59623 -0.729929 1.64601 -2.15867 -0.373572 1.20473 -1.6147 
-0.00617372 0.828992 -1.00138 1.16405 0.208422 1.21248 0.947221 0.24139 0.773868 
0.349975 0.538638 -0.366859 0.673 0.344566 0.238326 1.31638 0.222297 1.53204 
-1.33388 2.61042 -2.90694 -1.54954 3.04823 -3.08016 -0.931389 1.94336 -2.44863 
-1.23796 2.41482 -2.83902 -0.588049 1.49978 -1.94407 -0.225786 1.11201 -1.35555 
0.134715 0.799346 -0.726389 -1.49207 2.87269 -3.09939 0.470385 0.576111 -0.108846 
0.762939 0.442941 0.452173 1.00111 0.385349 0.924725 1.17583 0.38574 1.28335 
1.28237 0.421496 1.51268 -1.70723 3.28215 -3.28863 -1.1234 2.231 -2.71766 
-0.795505 1.78897 -2.25581 -1.40917 2.68774 -3.06024 -0.441833 1.39344 -1.6984 
-0.0812654 1.06383 -1.08296 0.263947 0.815041 -0.459151 0.572704 0.652789 0.122902 
0.830933 0.56888 0.626264 1.0298 0.546251 1.02528 -1.6376 3.10984 -3.27532 
1.15759 0.575681 1.29308 -0.994583 2.0706 -2.54804 -1.30531 2.50728 -2.96584 
-0.652383 1.67075 -2.02648 -0.295916 1.32931 -1.43271 0.0549603 1.05918 -0.810417 
0.377495 0.870655 -0.212029 -1.56843 2.94179 -3.2618 0.654001 0.760344 0.318338 
0.875556 0.71276 0.754359 1.03098 0.719456 1.06979 1.11144 0.767106 1.24395 
-1.78504 3.33623 -3.46164 -1.18478 2.34389 -2.82056 -0.856155 1.94256 -2.33772 
-1.4765 2.76994 -3.19385 -0.507179 1.59308 -1.77182 -0.155219 1.30704 -1.15994 
0.17798 1.09473 -0.551692 0.471961 0.958957 0.00400323 0.713118 0.887816 0.471131 
0.895537 0.867237 0.831921 -1.71754 3.17746 -3.44804 0.998358 0.907976 1.04672 
-1.05218 2.20796 -2.63087 -1.36559 2.60758 -3.07349 -0.713025 1.85255 -2.09677 
-0.364231 1.55552 -1.50334 -0.0245537 1.32379 -0.893571 -1.63765 3.01819 -3.40416 
0.284258 1.16355 -0.31822 0.749239 1.02601 0.576942 0.545301 1.07062 0.180927 
0.88802 1.0306 0.853196 -1.8596 3.39545 -3.62613 0.94054 1.08838 0.969048 
-1.2401 2.46659 -2.90579 -0.91247 2.10698 -2.40594 -1.53708 2.86075 -3.30812 
-0.569895 1.8018 -1.83662 -0.228373 1.55587 -1.23428 0.0916803 1.37444 -0.646522 
0.371129 1.25751 -0.119248 0.762141 1.16745 0.633815 0.596829 1.19572 0.314143 
-1.78869 3.24974 -3.59823 0.836799 1.223 0.790855 -1.10503 2.35633 -2.69879 
-1.41973 2.71788 -3.16293 -0.770423 2.04391 -2.15667 -0.431195 1.78808 -1.56958 
-0.104244 1.58985 -0.97797 -1.69922 3.1018 -3.52556 0.190612 1.45087 -0.428755 
0.43741 1.36694 0.0393827 0.627138 1.32479 0.402529 0.749361 1.31181 0.637517 
-1.92796 3.45948 -3.77506 -1.29027 2.60032 -2.97498 -0.965201 2.28176 -2.46251 
0.767854 1.38919 0.68631 -1.59086 2.9607 -3.40285 -0.630674 2.01769 -1.8952 
-0.301486 1.80757 -1.30864 0.00469125 1.6504 -0.745537 0.270389 1.54439 -0.247483 
0.484117 1.48069 0.156713 0.637701 1.45028 0.447761 -1.85077 3.32696 -3.72546 
0.664836 1.51238 0.509822 -1.46807 2.83872 -3.23487 -1.15389 2.51554 -2.75376 
-0.82564 2.24364 -2.20912 -0.497695 2.02465 -1.63423 -1.75278 3.19281 -3.62537 
-0.184712 1.85409 -1.06588 0.0962543 1.72873 -0.545169 0.331303 1.64403 -0.105327 
0.51435 1.58726 0.236569 -1.98798 3.52838 -3.9033 -1.3361 2.74534 -3.03001 
0.540467 1.66214 0.298849 -1.63782 3.07002 -3.47812 -1.01556 2.46606 -2.51051 
-0.690927 2.23913 -1.95123 0.618145 1.6315 0.438154 -0.375214 2.05896 -1.38539 
0.375838 1.73785 -1.30611e-05 -0.0834392 1.91916 -0.850452 0.169499 1.81546 -0.381826 
-1.90354 3.40999 -3.82893 -1.51138 2.97056 -3.29094 0.5249 1.74905 0.28132 
-1.2003 2.68554 -2.79919 0.408258 1.81259 0.0747306 -0.88034 2.4505 -2.2582 
-1.79825 3.2915 -3.70334 -0.564716 2.26256 -1.70028 0.225788 1.89927 -0.255521 
-0.265996 2.11254 -1.15837 0.000691786 1.99411 -0.668817 -2.03785 3.60223 -4.00662 
0.41332 1.88388 0.0940509 -1.37919 2.90188 -3.07425 -1.67869 3.18928 -3.53529 
-1.06572 2.65934 -2.55477 0.266828 1.97049 -0.164436 -0.752024 2.46368 -2.00845 
0.0675896 2.06924 -0.523703 -0.449249 2.30583 -1.4651 -0.172327 2.17708 -0.961106 
0.471781 1.85241 0.193607 -1.94673 3.49965 -3.90771 0.286903 2.03284 -0.117695 
-1.55133 3.11403 -3.33447 -1.24679 2.86629 -2.84048 0.38664 1.96491 0.0529781 
0.11802 2.13591 -0.415154 -0.936663 2.66268 -2.30898 -1.83633 3.39846 -3.76063 
-0.632039 2.49721 -1.76869 -0.0953909 2.24427 -0.798443 -0.347015 2.36085 -1.25424 
-2.076 3.68117 -4.0815 0.28713 2.08864 -0.111689 -1.71509 3.31915 -3.57746 
0.150314 2.19231 -0.34587 -1.42231 3.07047 -3.11331 -1.11889 2.86076 -2.60219 
-0.813431 2.6863 -2.06744 -0.035418 2.30638 -0.672393 -0.522746 2.54314 -1.54737 
-0.260076 2.42018 -1.07436 0.3314 2.04985 -0.0420456 -1.9808 3.59753 -3.96208 
0.16653 2.23683 -0.311208 -1.5902 3.26929 -3.37008 -1.29856 3.05873 -2.88762 
-1.86899 3.51419 -3.80078 0.00749817 2.3584 -0.583508 0.252327 2.16029 -0.17035 
-0.993521 2.8743 -2.3613 -0.698642 2.7234 -1.8389 -0.189567 2.47692 -0.929343 
-0.426439 2.59407 -1.35187 0.165558 2.27328 -0.31162 -2.1009 3.76541 -4.12488 
0.0351239 2.39718 -0.528075 -1.74758 3.45792 -3.60646 -1.47451 3.25565 -3.16321 
-1.1725 3.06231 -2.65035 -0.874386 2.90197 -2.12817 -0.135698 2.52519 -0.820397 
-0.594172 2.76595 -1.63033 -0.34532 2.64389 -1.18822 0.196621 2.22631 -0.268626 
-2.00732 3.70673 -3.99404 0.0492146 2.42197 -0.501831 -1.89271 3.63081 -3.82006 
-1.34992 3.25038 -2.93362 -1.64547 3.44938 -3.42668 -1.05028 3.08034 -2.41537 
-0.0967967 2.55973 -0.744569 -0.763206 2.93622 -1.90954 -0.502842 2.80815 -1.44914 
-0.28034 2.68689 -1.05926 0.120729 2.33735 -0.39016 0.0517124 2.43346 -0.500017 
-2.11073 3.85567 -4.1332 -0.0714317 2.57819 -0.698554 -1.52456 3.43694 -3.20879 
-1.22652 3.2591 -2.7006 -0.933114 3.10536 -2.18854 -1.81082 3.63481 -3.67714 
-0.662844 2.97076 -1.71324 -0.230325 2.71674 -0.963352 -0.426585 2.84487 -1.30017 
0.0663221 2.38452 -0.48723 -1.98259 3.78739 -3.93891 -0.054685 2.57507 -0.672963 
-1.40297 3.43765 -2.98332 -1.10414 3.27401 -2.46755 -1.69555 3.61854 -3.4743 
-0.824724 3.13208 -1.97929 -0.19374 2.72952 -0.897358 -0.57602 3.00062 -1.54584 
-0.365031 2.86976 -1.18352 -0.0135484 2.50991 -0.612199 -2.10494 3.93811 -4.10813 
-1.866 3.78316 -3.73723 -1.27614 3.44169 -2.74611 -0.167321 2.72129 -0.85461 
-1.57997 3.61431 -3.26382 -0.988284 3.29224 -2.24679 -0.728302 3.15523 -1.79537 
-0.503248 3.01987 -1.40919 -0.31646 2.87702 -1.09619 -0.0424859 2.50697 -0.668795 
-1.99334 3.89896 -3.92964 -0.136316 2.676 -0.809355 -1.44867 3.60635 -3.02337 
-1.76079 3.78481 -3.54765 -1.15296 3.45049 -2.5147 -0.882991 3.30829 -2.04796 
-0.644998 3.16879 -1.64012 -0.278389 2.86206 -1.03318 -0.443149 3.02211 -1.30122 
-0.113871 2.62239 -0.77963 -1.62072 3.76318 -3.29778 -1.31776 3.60504 -2.7812 
-2.08335 4.02429 -4.04859 -0.24336 2.81558 -0.980966 -1.03925 3.45954 -2.30199 
-0.790606 3.31674 -1.87675 -0.573643 3.16626 -1.51204 -1.92737 3.9463 -3.8001 
-0.394067 3.00295 -1.21851 -0.149597 2.61855 -0.845929 -0.215874 2.74735 -0.944698 
-1.78226 3.90701 -3.55107 -1.48004 3.75121 -3.04205 -1.19547 3.60678 -2.55471 
-0.938874 3.46338 -2.11682 -0.709497 3.31016 -1.73122 -0.352329 2.95742 -1.15373 
-0.512843 3.14257 -1.40847 -1.63379 3.8851 -3.28651 -2.05109 4.09324 -3.97002 
-1.34915 3.74647 -2.80199 -0.32103 2.89347 -1.10973 -1.08822 3.60724 -2.35752 
-0.849529 3.45361 -1.9565 -0.638506 3.2836 -1.60927 -1.91568 4.04352 -3.74801 
-0.460976 3.09388 -1.32572 -0.236108 2.70191 -0.987288 -1.77378 4.0046 -3.50485 
-0.298901 2.82027 -1.08172 -1.49587 3.87436 -3.03634 -1.23685 3.74497 -2.59595 
-0.769645 3.42501 -1.81843 -0.577422 3.23467 -1.50964 -0.991628 3.59512 -2.18415 
-0.418608 3.02121 -1.26307 -1.6323 3.9884 -3.25167 -2.00241 4.15714 -3.85951 
-1.38233 3.87351 -2.82786 -0.526622 3.16428 -1.43136 -0.699734 3.37569 -1.70266 
-0.90308 3.5639 -2.03052 -1.13442 3.73181 -2.41182 -1.88134 4.1239 -3.65674 
-0.387013 2.92674 -1.22069 -0.324279 2.78079 -1.12916 -1.75564 4.08646 -3.44298 
-1.5226 3.99 -3.04964 -0.485652 3.076 -1.37174 -0.640906 3.30698 -1.60958 
-0.823408 3.51227 -1.89734 -1.27597 3.85973 -2.63645 -1.0384 3.69912 -2.24464 
-1.65694 4.09309 -3.25932 -1.93489 4.20732 -3.71522 -0.395783 2.84074 -1.24215 
-0.457472 2.97973 -1.3333 -0.59314 3.22219 -1.53734 -1.41523 3.97679 -2.85598 
-0.753326 3.43955 -1.78463 -0.949987 3.64525 -2.0959 -1.17309 3.82622 -2.45665 
-1.80419 4.17078 -3.49583 -0.555717 3.12789 -1.48281 -1.55372 4.08082 -3.07288 
-0.868511 3.56874 -1.96342 -0.693494 3.34661 -1.69201 -1.30338 3.94001 -2.66056 
-1.07955 3.7737 -2.29803 -1.70128 4.16981 -3.30499 -0.467195 2.89801 -1.35275 
-0.526268 3.02816 -1.44073 -1.85418 4.23137 -3.55199 -1.4293 4.03917 -2.8564 
-0.990295 3.69697 -2.15179 -0.795536 3.46972 -1.84853 -0.643817 3.23502 -1.61752 
-1.20541 3.88965 -2.49278 -1.55238 4.12159 -3.04787 -0.907464 3.59856 -2.01975 
-0.730484 3.34596 -1.74887 -1.11237 3.81565 -2.33884 -0.600901 3.10885 -1.55394 
-1.32532 3.98895 -2.67706 -1.65656 4.18137 -3.20806 -1.77323 4.22881 -3.39556 
-0.539003 2.95491 -1.46136 -0.833565 3.47986 -1.90463 -1.0205 3.71714 -2.19157 
-1.44258 4.07325 -2.85626 -1.22933 3.9178 -2.51576 -0.672622 3.19402 -1.66129 
-1.55587 4.14108 -3.02865 -0.934014 3.59503 -2.05549 -0.769433 3.34468 -1.8061 
-0.602924 3.00672 -1.55565 -1.13373 3.82201 -2.3612 -1.67268 4.19626 -3.20946 
-1.34067 4.00268 -2.68322 -1.0353 3.70067 -2.20643 -0.857751 3.45212 -1.93686 
-0.720343 3.20663 -1.73012 -1.4604 4.07966 -2.86327 -1.24036 3.90519 -2.51752 
-0.661111 3.05693 -1.63957 -1.5698 4.13489 -3.02691 -0.944438 3.55106 -2.06419 
-0.793539 3.29543 -1.83662 -1.13346 3.78336 -2.3491 -1.3663 3.99853 -2.70594 
-1.03369 3.64578 -2.19443 -0.728249 3.12068 -1.7346 -0.864273 3.37675 -1.93832 
-1.46433 4.04692 -2.8467 -1.28326 3.9046 -2.56856 -1.19279 3.80173 -2.4273 
-0.937904 3.46549 -2.0443 -1.10354 3.68189 -2.28918 -0.794886 3.19249 -1.82794 
-1.35832 3.93665 -2.67174 -1.01313 3.54909 -2.15186 -0.86676 3.27966 -1.92885 
-1.2476 3.8024 -2.49499 -0.947067 3.38666 -2.0432 -1.14421 3.66388 -2.33504 
-1.04423 3.5232 -2.18492 
