# vtk DataFile Version 3.0
vtk output
ASCII
DATASET POLYDATA
POINTS 724 float
10.9634 -11.167 13.1984 10.9987 -11.598 12.9737 10.9586 -10.6817 13.5593 
11.0574 -11.9802 12.8588 10.9854 -10.2285 13.9913 11.0373 -10.839 13.6832 
11.1413 -12.328 12.8332 11.0378 -9.78608 14.4907 11.0739 -11.2011 13.5005 
11.0574 -10.4353 14.079 11.1231 -11.5239 13.3856 11.1735 -11.8456 13.2767 
11.2339 -12.612 12.8833 11.0871 -10.0385 14.4935 11.1104 -9.3532 15.0404 
11.1252 -10.7571 14.0401 11.2521 -12.0534 13.3362 11.1782 -11.1147 13.9007 
11.1369 -9.63791 14.9645 11.1459 -10.3153 14.4875 11.3368 -12.8529 12.9929 
11.2034 -8.90458 15.6563 11.2416 -11.4753 13.783 11.3356 -12.2989 13.3775 
11.2004 -9.21601 15.4776 11.1817 -9.88115 14.9602 11.206 -10.6249 14.4323 
11.3292 -11.745 13.8119 11.4466 -13.0515 13.1535 11.2614 -10.9612 14.3139 
11.295 -8.5137 16.2135 11.2343 -9.42786 15.4786 11.2308 -10.1592 14.9203 
11.4296 -12.5162 13.4714 11.2876 -8.91453 15.995 11.3293 -11.2539 14.2603 
11.4214 -12.0041 13.859 11.2828 -10.459 14.8498 11.2704 -9.69284 15.4276 
11.4019 -8.08611 16.8278 11.5635 -13.213 13.3644 11.53 -12.7348 13.5884 
11.4129 -11.511 14.2802 11.3693 -8.49533 16.5313 11.3382 -10.7594 14.7666 
11.3191 -9.19799 15.9515 11.3127 -9.97426 15.3647 11.5214 -12.2735 13.9204 
11.4074 -11.0343 14.731 11.3858 -8.75121 16.472 11.3544 -9.48528 15.8856 
11.3597 -10.2639 15.2918 11.5032 -11.7801 14.3036 11.6667 -13.3199 13.5801 
11.4693 -8.04794 17.1246 11.5231 -7.61181 17.4983 11.6238 -12.7036 13.8753 
11.4142 -10.5512 15.2231 11.4893 -11.2998 14.7305 11.412 -9.01502 16.4149 
11.3942 -9.77293 15.813 11.5978 -12.1157 14.2818 11.4766 -8.27449 17.0622 
11.7232 -12.9309 13.9944 11.4817 -10.8258 15.1852 11.4391 -10.0613 15.7381 
11.4431 -9.2919 16.3405 11.5779 -11.5968 14.7124 11.4885 -8.52446 16.9847 
11.5776 -7.66357 17.7071 11.6398 -7.14937 18.1299 11.7825 -13.4038 13.851 
11.6863 -12.3689 14.3233 11.492 -10.3454 15.6726 11.5608 -11.1069 15.158 
11.4796 -9.57487 16.2607 11.5077 -8.79504 16.8967 11.5814 -7.93713 17.6167 
11.6689 -11.8624 14.7327 11.7785 -12.5965 14.4051 11.7494 -6.69638 18.7207 
11.6823 -7.29759 18.2552 11.8409 -13.011 14.2759 11.5562 -10.6259 15.6234 
11.5218 -9.85947 16.183 11.5341 -9.07752 16.8031 11.5875 -8.24233 17.4936 
11.6476 -11.3778 15.1526 11.8984 -13.4519 14.1499 11.7644 -12.1254 14.7715 
11.68 -7.65143 18.1088 11.5721 -10.1423 16.114 11.603 -8.54813 17.3732 
11.5669 -9.36512 16.7105 11.6323 -10.8996 15.5948 11.7419 -11.655 15.1589 
11.7952 -6.74624 18.8876 11.8657 -12.5091 14.7304 11.8742 -6.1513 19.3926 
11.6851 -7.99277 17.961 11.9439 -12.9601 14.6076 11.6262 -8.85108 17.2597 
11.6064 -9.65111 16.6263 11.6335 -10.4198 16.0618 11.7835 -7.07857 18.7244 
11.719 -11.1814 15.573 12.0046 -13.4652 14.4447 11.8447 -12.0071 15.1181 
11.6994 -8.31818 17.8254 11.7794 -7.42632 18.5615 11.6562 -9.14666 17.1582 
11.6549 -9.93286 16.5545 11.7068 -10.7014 16.0184 11.8163 -11.5065 15.527 
11.9485 -12.4115 15.0502 11.9033 -6.35538 19.4347 11.9859 -5.63147 19.9936 
11.7848 -7.76864 18.4058 12.037 -12.8584 14.9452 11.7213 -8.62591 17.7084 
11.6939 -9.43512 17.0695 11.7137 -10.2155 16.4919 11.8851 -6.78367 19.207 
12.1019 -13.4526 14.7278 11.7918 -11.0064 15.9644 11.9188 -11.8625 15.4673 
12.0243 -5.71879 20.103 11.8003 -8.08524 18.2772 11.8791 -7.1763 19.0106 
11.7494 -8.92263 17.6051 11.7407 -9.72063 16.9907 11.7838 -10.5095 16.4282 
12.0201 -12.2355 15.4035 11.8864 -11.3263 15.9069 12.0002 -6.12787 19.8668 
12.1368 -12.9998 15.1228 12.1106 -5.00831 20.6658 11.8891 -7.51037 18.8684 
11.821 -8.38979 18.1617 11.7853 -9.21321 17.512 11.797 -10.0104 16.9151 
11.9846 -11.65 15.8535 11.9817 -6.56209 19.6267 11.8654 -10.8108 16.3664 
12.1154 -12.515 15.4273 12.2119 -13.4113 15.063 12.1333 -5.25183 20.6545 
11.9051 -7.82603 18.7418 11.8473 -8.68675 18.0562 11.9864 -6.90298 19.4791 
11.8302 -9.50297 17.4248 12.0812 -11.9379 15.8385 11.8639 -10.3035 16.8444 
11.9573 -11.1133 16.3124 12.0914 -5.85856 20.2805 12.2291 -12.8553 15.479 
12.2232 -4.39943 21.2751 11.9249 -8.13234 18.6242 11.9985 -7.22658 19.3452 
11.8814 -8.98 17.9573 12.1797 -12.2452 15.8256 11.8843 -9.79311 17.3433 
11.9429 -10.5965 16.7825 12.0549 -11.4019 16.2814 12.0907 -6.23207 20.1171 
12.3128 -13.3488 15.3851 12.1974 -5.17399 20.8966 12.2672 -4.48568 21.3855 
12.0143 -7.54275 19.2172 11.9496 -8.43292 18.5135 11.9242 -9.27148 17.8643 
12.0991 -6.57271 19.9753 11.9491 -10.0826 17.2702 12.1563 -11.7 16.2562 
12.0339 -10.8837 16.7373 12.2743 -12.4662 15.8941 12.1997 -5.52128 20.7634 
12.3448 -12.871 15.7856 12.3419 -3.702 21.9206 12.033 -7.85323 19.0948 
11.9819 -8.72981 18.4088 12.1121 -6.90394 19.8374 11.9766 -9.56114 17.7791 
12.0265 -10.3693 17.2104 12.1338 -11.1763 16.7006 12.2583 -11.9591 16.2806 
12.2054 -5.86545 20.6237 12.4211 -13.2562 15.7481 12.3045 -4.68142 21.4271 
12.0565 -8.15956 18.9778 12.1274 -7.22944 19.7027 12.0229 -9.02377 18.3112 
12.0398 -9.84913 17.7047 12.3824 -3.8765 21.977 12.2158 -6.2089 20.4806 
12.3621 -12.3215 16.2432 12.1172 -10.6596 17.1601 12.2381 -11.4549 16.6923 
12.3123 -5.04872 21.2979 12.4441 -12.7231 16.1634 12.4495 -3.01833 22.5052 
12.1453 -7.55065 19.5721 12.0871 -8.46175 18.8675 12.2291 -6.55159 20.3356 
12.0736 -9.31547 18.2224 12.1159 -10.1396 17.6395 12.2182 -10.9468 17.1273 
12.3208 -5.42475 21.1472 12.3463 -11.7896 16.6562 12.4109 -4.16274 21.9494 
12.521 -13.1446 16.1058 12.1678 -7.86591 19.4485 12.244 -6.89338 20.1906 
12.1261 -8.76074 18.7647 12.4497 -12.165 16.6029 12.1353 -9.60841 18.1422 
12.3331 -5.79862 20.9912 12.489 -3.26492 22.5236 12.2059 -10.4318 17.5862 
12.3257 -11.2677 17.0822 12.4224 -4.56017 21.8128 12.5372 -12.5788 16.5271 
12.5499 -2.34538 23.0409 12.2617 -7.22729 20.0529 12.1967 -8.1764 19.332 
12.3469 -6.17507 20.8288 12.1746 -9.0592 18.6696 12.4343 -4.97131 21.6511 
12.21 -9.90467 18.0707 12.4336 -11.6212 17.0272 12.3072 -10.7455 17.5283 
12.5148 -3.62507 22.4524 12.6142 -13.0147 16.4639 12.363 -6.5367 20.6764 
12.2834 -7.55388 19.923 12.448 -5.39588 21.4715 12.2332 -8.48432 19.2225 
12.5363 -12.0087 16.9621 12.2345 -9.36024 18.5817 12.5293 -4.06988 22.2996 
12.2985 -10.2159 17.9985 12.591 -2.65649 23.0317 12.414 -11.0843 17.4649 
12.6254 -12.4266 16.889 12.4655 -5.79236 21.3077 12.3815 -6.88519 20.5338 
12.5423 -4.56548 22.0986 12.3104 -7.87565 19.7997 12.6462 -1.68664 23.5344 
12.2795 -8.79274 19.1192 12.3073 -9.67204 18.4948 12.5203 -11.4503 17.3968 
12.6152 -3.10271 22.9174 12.3983 -10.5457 17.9236 12.7015 -12.8668 16.825 
12.6268 -3.70523 22.6871 12.5631 -4.99995 21.9305 12.4844 -6.16713 21.1561 
12.4027 -7.22509 20.3986 12.6212 -11.8429 17.3263 12.3444 -8.19518 19.6825 
12.337 -9.1078 19.0185 12.3939 -9.99797 18.4073 12.5029 -10.8969 17.8471 
12.69 -2.08927 23.4906 12.7094 -12.26 17.2565 12.6992 -2.85142 23.2127 
12.6525 -4.17116 22.5273 12.5857 -5.40114 21.7773 12.5041 -6.52801 21.0126 
12.4278 -7.56003 20.2691 12.3878 -8.51732 19.5685 12.6063 -11.2697 17.7714 
12.7395 -1.05641 23.9837 12.4077 -9.43373 18.9178 12.4914 -10.34 18.3196 
12.7832 -12.7018 17.1902 12.7632 -2.05851 23.6663 12.7331 -3.31882 23.0849 
12.6809 -4.59241 22.3835 12.6076 -5.78358 21.6314 12.704 -11.6635 17.6991 
12.525 -6.88088 20.8743 12.4592 -7.89339 20.1437 12.4429 -8.84614 19.456 
12.5927 -10.6992 18.2345 12.492 -9.7718 18.8182 12.8012 -1.25097 24.048 
12.7899 -12.0766 17.6335 12.7683 -3.74763 22.9624 12.8076 -2.45849 23.5998 
12.7077 -4.99369 22.2431 12.6286 -6.15498 21.4897 12.5482 -7.22943 20.7398 
12.4996 -8.22911 20.0204 12.6921 -11.0757 18.155 12.5111 -9.18441 19.3443 
12.5862 -10.1231 18.7215 12.8442 -0.381515 24.4468 12.8591 -12.5216 17.5589 
12.8673 -1.54708 24.0734 12.8015 -4.16163 22.8362 12.849 -2.87534 23.5069 
12.7321 -5.38294 22.1038 12.7854 -11.4683 18.0836 12.649 -6.52003 21.3506 
12.5767 -7.57615 20.608 12.5522 -8.57074 19.8981 12.6833 -10.4883 18.6307 
12.5926 -9.53292 19.2354 12.9108 -0.671605 24.4764 12.8674 -11.8748 18.0242 
12.9191 -1.95672 24.0155 12.8884 -3.29341 23.4009 12.8314 -4.56649 22.7058 
12.7541 -5.76459 21.9653 12.6705 -6.88147 21.2129 12.6146 -7.92485 20.4774 
12.7775 -10.8671 18.5495 12.6178 -8.92022 19.7779 12.6827 -9.89221 19.1319 
12.9286 -12.3286 17.9285 12.947 0.235916 24.86 12.976 -1.03247 24.4694 
12.9662 -2.38419 23.9311 12.9246 -3.70954 23.2853 12.8654 -11.2571 18.4814 
12.8577 -4.96386 22.5733 12.7741 -6.14124 21.8271 12.6966 -7.24108 21.0767 
12.6647 -8.2782 20.3481 12.7741 -10.2625 19.0373 12.6955 -9.27804 19.6618 
13.019 -0.115003 24.8714 12.9419 -11.6536 18.4321 13.0327 -1.45403 24.4153 
13.0096 -2.81309 23.8332 12.9568 -4.12094 23.1638 12.8806 -5.35594 22.4392 
12.794 -6.51477 21.6887 12.7322 -7.60197 20.9412 12.862 -10.6429 18.9557 
12.7272 -8.63815 20.2211 12.7799 -9.64391 19.5532 12.9902 -12.1274 18.2922 
13.0506 0.807192 25.2402 13.0864 -0.516792 24.8507 13.0845 -1.89056 24.3392 
13.0488 -3.23918 23.7263 12.9849 -4.52745 23.0385 12.9428 -11.0302 18.8927 
12.9003 -5.74362 22.3039 12.8184 -6.88651 21.5504 12.7797 -7.96652 20.8068 
12.864 -10.0175 19.4561 12.7998 -9.00377 20.0998 13.0431 -11.9248 18.64 
12.877 -9.37439 19.9879 12.8386 -8.33537 20.6757 12.8519 -7.2589 21.4124 
12.9191 -6.12853 22.167 13.1474 -0.95352 24.7992 13.1318 -2.32809 24.2508 
13.0082 -4.92952 22.9104 13.0836 -3.66 23.6136 13.1276 0.417228 25.2423 
12.9436 -10.3962 19.3759 13.0131 -11.4144 18.8596 12.9052 -8.70712 20.5514 
12.9527 -9.74873 19.8902 12.8967 -7.63339 21.2756 12.9417 -6.51187 22.0289 
13.0275 -5.32753 22.7798 13.0153 -10.7735 19.3212 13.1131 -4.07568 23.4971 
13.1745 -2.76142 24.1547 13.2039 -1.39866 24.7315 13.1982 -0.0113156 25.2159 
13.1568 1.33718 25.5979 13.0916 -11.7064 18.9975 12.9743 -9.08085 20.4383 
12.9513 -8.00991 21.1426 13.0225 -10.1215 19.8142 12.9732 -6.895 21.8906 
13.0452 -5.72351 22.6462 13.1367 -4.48639 23.3772 13.2117 -3.18925 24.0534 
13.2556 -1.84182 24.6545 13.2637 -0.460564 25.1683 13.0774 -11.129 19.3124 
13.2385 0.925823 25.5965 13.0112 -8.38665 21.0176 13.0404 -9.45327 20.3424 
13.015 -7.27816 21.754 13.0665 -6.11762 22.5108 13.1551 -4.89506 23.2525 
[...]
POINT_DATA 724
VECTORS velocity double
0.907779 -0.790761 0.827871 0.830226 -0.439142 0.745148 0.987066 -1.2065 0.907879 
0.755154 -0.142493 0.655924 1.05294 -1.60766 0.978034 0.928631 -1.07051 0.794776 
0.680667 0.114431 0.556316 1.10901 -2.00106 1.051 0.859952 -0.764309 0.70731 
0.981699 -1.41947 0.843181 0.795234 -0.500123 0.623576 0.7328 -0.245926 0.547778 
0.612822 0.316891 0.453707 1.03251 -1.76556 0.905764 1.15551 -2.37367 1.13514 
0.898572 -1.13515 0.702016 0.676112 -0.0853791 0.453908 0.82449 -0.830694 0.594242 
1.07735 -2.10884 0.977854 0.952003 -1.51129 0.756789 0.547526 0.484592 0.343669 
1.19535 -2.72997 1.24442 0.750199 -0.533287 0.491147 0.614296 0.0993506 0.357343 
1.12295 -2.45533 1.08013 1.00207 -1.87941 0.829878 0.872675 -1.23512 0.61798 
0.679276 -0.314685 0.376195 0.484336 0.621655 0.226108 0.799711 -0.945852 0.502597 
1.22473 -3.00291 1.36447 1.05256 -2.25166 0.933726 0.924316 -1.62364 0.681564 
0.55222 0.260228 0.251648 1.12651 -2.66148 1.12269 0.731074 -0.698748 0.393617 
0.609889 -0.109893 0.263067 0.848139 -1.35483 0.542508 0.976274 -2.00607 0.776749 
1.2533 -3.25097 1.52574 0.420914 0.734735 0.0972517 0.486949 0.419522 0.137713 
0.661811 -0.484056 0.277967 1.16575 -2.94477 1.27387 0.777252 -1.09251 0.419824 
1.0377 -2.39696 0.927115 0.899337 -1.74887 0.622969 0.537397 0.0976533 0.144952 
0.707979 -0.855294 0.301309 1.08616 -2.71481 1.08554 0.954704 -2.13437 0.747364 
0.824382 -1.48856 0.478426 0.590861 -0.265141 0.161862 0.366638 0.812862 -0.0210424 
1.20219 -3.19269 1.46195 1.28306 -3.45647 1.74014 0.448483 0.409544 0.0265099 
0.752348 -1.23463 0.344886 0.63748 -0.629603 0.181072 1.00533 -2.47654 0.898898 
0.875482 -1.87414 0.580549 0.513956 -0.00385763 0.0469523 1.13133 -3.00127 1.28229 
0.380067 0.574401 -0.0922829 0.681179 -0.994591 0.216493 0.799228 -1.61605 0.425241 
0.925917 -2.23006 0.718195 0.564473 -0.385604 0.062361 1.05661 -2.79061 1.09428 
1.21422 -3.32584 1.62221 1.31176 -3.58308 1.979 0.306831 0.879868 -0.158991 
0.448086 0.189932 -0.0584891 0.725307 -1.36411 0.280118 0.609113 -0.754181 0.0902603 
0.847993 -1.9794 0.545475 0.97866 -2.5619 0.901516 1.13087 -3.1158 1.397 
0.494837 -0.170947 -0.0523 0.382534 0.361972 -0.1689 1.34051 -3.63809 2.23267 
1.22313 -3.39651 1.79071 0.315491 0.645239 -0.238417 0.652351 -1.11834 0.141869 
0.771604 -1.72787 0.381576 0.899915 -2.32193 0.711371 1.04485 -2.88397 1.16304 
0.538352 -0.526728 -0.0314651 0.247644 0.927149 -0.302274 0.424566 0.0367473 -0.167897 
1.12216 -3.16156 1.49757 0.696794 -1.47899 0.22677 0.960214 -2.64515 0.939276 
0.821502 -2.07567 0.527708 0.580368 -0.881914 0.00954496 0.466298 -0.29949 -0.152956 
1.27793 -3.5024 2.12367 0.343797 0.320642 -0.283186 1.37562 -3.61915 2.54932 
1.02809 -2.92643 1.2284 0.267716 0.631833 -0.370405 0.877311 -2.40212 0.72723 
0.744311 -1.82872 0.35324 0.623277 -1.23635 0.0801895 1.19026 -3.33276 1.84592 
0.507909 -0.644383 -0.119516 0.194137 0.953757 -0.43665 0.387855 -0.0255379 -0.274864 
0.939141 -2.69105 0.981788 1.09681 -3.13441 1.55927 0.796541 -2.15884 0.528218 
0.668656 -1.58458 0.188581 0.549998 -0.994152 -0.0608447 0.432187 -0.381331 -0.247473 
0.306534 0.273806 -0.391016 1.28537 -3.44855 2.32443 1.40876 -3.52298 2.84812 
1.00485 -2.92299 1.28499 0.227755 0.585633 -0.489669 0.854273 -2.45723 0.755598 
0.717939 -1.91724 0.341704 0.593877 -1.34103 0.0316678 1.17981 -3.28134 1.97138 
0.146263 0.964495 -0.559929 0.475904 -0.740121 -0.197741 0.355321 -0.104465 -0.369853 
1.34519 -3.38742 2.71503 0.917337 -2.7095 1.03541 1.07921 -3.09475 1.64846 
0.772253 -2.22365 0.544787 0.640985 -1.67639 0.165611 0.519395 -1.09237 -0.119087 
0.279394 0.174141 -0.48354 0.40248 -0.482154 -0.327114 1.25545 -3.30498 2.39248 
0.164879 0.696318 -0.611072 1.44579 -3.32022 3.18284 0.987818 -2.90592 1.37219 
0.832577 -2.4923 0.80154 0.692554 -1.98992 0.346822 0.565159 -1.43316 -0.00212445 
0.330964 -0.228642 -0.44733 1.15406 -3.1747 2.04197 0.446306 -0.843409 -0.261047 
0.211481 0.381649 -0.591549 0.0931517 0.961997 -0.699128 1.36102 -3.20802 2.94832 
0.900283 -2.71161 1.11554 0.750026 -2.2717 0.580786 1.06266 -3.02401 1.75352 
0.6147 -1.75476 0.159593 0.263858 -0.00652535 -0.558291 0.490811 -1.18971 -0.160566 
0.375206 -0.599295 -0.393215 1.24275 -3.16774 2.50048 0.127682 0.626623 -0.724636 
1.47687 -3.04563 3.46842 0.815052 -2.51079 0.872241 0.974336 -2.86268 1.48165 
0.669648 -2.04837 0.372023 0.194595 0.223203 -0.669103 0.538597 -1.51867 -0.0173463 
0.418422 -0.949772 -0.308616 0.306486 -0.370034 -0.51635 1.14722 -3.05707 2.18867 
0.0451403 0.946955 -0.826133 1.3188 -3.04358 2.91494 1.41432 -2.912 3.33229 
0.887606 -2.69065 1.21998 0.731812 -2.30418 0.640723 0.591294 -1.82279 0.174588 
1.05704 -2.93264 1.90122 0.464276 -1.28351 -0.183772 0.237221 -0.13903 -0.636199 
0.348009 -0.717863 -0.446567 0.131281 0.391396 -0.776962 1.23121 -2.97692 2.63287 
0.0650657 0.665303 -0.863701 1.50341 -2.65861 3.72891 0.80215 -2.50854 0.967739 
0.650646 -2.09308 0.420892 0.968741 -2.79569 1.62321 0.514824 -1.59607 -0.0117139 
0.391605 -1.05173 -0.339871 0.277857 -0.486389 -0.578768 0.170037 0.0620463 -0.752013 
1.14436 -2.89874 2.35142 -0.00604899 0.918318 -0.961395 1.33502 -2.79735 3.12917 
0.718119 -2.31783 0.725302 0.881408 -2.64564 1.35234 0.571445 -1.87848 0.212573 
0.43975 -1.36885 -0.18784 1.43147 -2.55687 3.54929 1.05707 -2.80575 2.06904 
0.0940925 0.325444 -0.873885 0.319769 -0.820469 -0.488039 0.208416 -0.267244 -0.705524 
1.24596 -2.75653 2.84662 0.0218899 0.601921 -0.979581 1.51749 -2.22392 3.90415 
0.794767 -2.48279 1.08846 0.635829 -2.12042 0.4938 0.969141 -2.69657 1.78645 
0.493827 -1.66088 0.0150412 0.365532 -1.14008 -0.355401 0.24865 -0.593796 -0.62875 
1.15678 -2.70971 2.55647 0.133754 -0.0150803 -0.836544 1.349 -2.49857 3.31866 
-0.0538077 0.880468 -1.08628 0.709326 -2.30905 0.834008 0.880497 -2.57044 1.50465 
0.555162 -1.91725 0.273118 0.0567056 0.257096 -0.965171 0.417066 -1.43936 -0.173625 
1.06699 -2.64674 2.26302 1.44219 -2.16321 3.70791 0.29215 -0.911425 -0.514353 
0.17454 -0.348095 -0.770506 1.2605 -2.49271 3.0406 -0.0201905 0.544271 -1.08531 
1.51777 -1.75998 3.99343 0.792369 -2.42871 1.22981 0.625285 -2.12617 0.589577 
0.975411 -2.56513 1.9637 0.475574 -1.70811 0.0618827 1.17011 -2.48108 2.74798 
0.340969 -1.21419 -0.353874 0.097791 -0.0848937 -0.911483 0.217628 -0.671504 -0.670323 
1.35961 -2.15948 3.47205 -0.0990241 0.834643 -1.20222 0.884466 -2.46313 1.67103 
0.705131 -2.27349 0.963337 1.07564 -2.45288 2.4373 0.542414 -1.93479 0.354597 
0.0189011 0.194826 -1.04958 0.396667 -1.49276 -0.140931 1.27142 -2.19518 3.19913 
0.264654 -0.980481 -0.528788 1.443 -1.74261 3.79931 0.141238 -0.41762 -0.824249 
-0.060897 0.486342 -1.1818 0.982417 -2.3976 2.13422 0.794438 -2.34342 1.38635 
1.17438 -2.2314 2.88529 0.618859 -2.10644 0.7053 1.50333 -1.2846 3.99863 
0.460456 -1.73522 0.128358 0.317853 -1.26876 -0.33764 0.062565 -0.14861 -0.976237 
1.36175 -1.80084 3.56938 0.187812 -0.736508 -0.698677 -0.141962 0.781952 -1.30899 
1.26325 -1.91638 3.26472 1.08059 -2.22617 2.58484 0.890502 -2.32018 1.83896 
0.705129 -2.20813 1.10873 -0.0179896 0.13346 -1.1247 0.533448 -1.92849 0.455444 
0.378822 -1.52622 -0.0912231 0.239165 -1.03559 -0.527825 0.109367 -0.479573 -0.865315 
1.42967 -1.32223 3.81394 -0.0999602 0.425437 -1.26847 1.3345 -1.54352 3.54277 
1.17203 -1.95625 2.98504 0.988685 -2.19428 2.29182 0.799258 -2.22369 1.54934 
0.616353 -2.05855 0.837592 0.448705 -1.74 0.212779 0.0288787 -0.209498 -1.02901 
1.47506 -0.821424 3.92854 0.297515 -1.30737 -0.304161 0.160159 -0.79208 -0.711876 
-0.182722 0.723839 -1.40591 1.3789 -1.15039 3.6979 1.25031 -1.60704 3.30379 
1.08305 -1.96654 2.71063 0.897383 -2.14108 2.0018 -0.0534378 0.0718636 -1.18887 
0.708224 -2.10994 1.26381 0.528249 -1.8962 0.573092 0.364468 -1.54077 -0.0231274 
0.0796508 -0.536155 -0.891795 0.216547 -1.0787 -0.509575 1.41796 -0.769638 3.79373 
-0.137372 0.361835 -1.34443 1.16753 -1.64874 3.06335 1.30833 -1.19981 3.51678 
0.994185 -1.9563 2.43448 0.805873 -2.06852 1.71259 0.617274 -1.98018 0.98211 
0.440829 -1.72183 0.315142 -0.00289764 -0.267753 -1.06829 0.280715 -1.33064 -0.251854 
0.135229 -0.839015 -0.708296 1.4286 -0.327183 3.77533 -0.221209 0.662365 -1.49178 
1.35273 -0.756579 3.64005 1.08382 -1.67516 2.81505 1.23574 -1.25884 3.32281 
0.904478 -1.92669 2.15451 -0.0872796 0.0109412 -1.2407 0.71376 -1.97757 1.42337 
0.526808 -1.83614 0.705456 0.3541 -1.53567 0.0639867 0.0524057 -0.586604 -0.902387 
0.19731 -1.10947 -0.472694 1.37452 -0.327773 3.65722 -0.173262 0.296889 -1.4087 
1.28765 -0.817443 3.48425 1.16021 -1.31266 3.11415 0.998421 -1.68584 2.5576 
0.813438 -1.87795 1.87009 0.621262 -1.86964 1.13504 0.436987 -1.67886 0.434367 
-0.0325759 -0.321578 -1.09286 0.267856 -1.33724 -0.179981 0.113466 -0.876121 -0.686642 
-0.257131 0.599889 -1.56525 1.37124 0.11504 3.56842 1.31729 -0.362777 3.53342 
1.22038 -0.88978 3.31623 1.08163 -1.35657 2.89087 -0.119446 -0.046828 -1.27896 
0.910853 -1.67862 2.2909 0.721037 -1.81051 1.5818 0.528906 -1.7462 0.849528 
0.347868 -1.50858 0.16961 0.0279383 -0.629 -0.895933 0.181907 -1.12632 -0.416132 
1.32351 0.0815129 3.47752 -0.207877 0.23331 -1.46031 1.25905 -0.436305 3.40602 
1.14977 -0.958569 3.13254 0.999975 -1.38649 2.6538 0.820974 -1.65291 2.01539 
0.627664 -1.72546 1.29122 0.437046 -1.60846 0.56818 -0.0598389 -0.368683 -1.10137 
0.259197 -1.32469 -0.0885174 0.0954313 -0.901884 -0.645388 -0.2898 0.53919 -1.62461 
1.30515 0.510558 3.32323 1.27408 0.019944 3.38455 1.19776 -0.518634 3.2653 
1.07556 -1.01821 2.93266 0.915133 -1.39991 2.40355 -0.149878 -0.0981123 -1.30268 
0.729067 -1.60869 1.73265 0.534053 -1.62428 1.00097 0.345788 -1.45662 0.292025 
0.00722903 -0.662697 -0.869796 0.170766 -1.12688 -0.339083 -0.318341 0.48292 -1.66864 
0.0817234 -0.914153 -0.582928 0.254913 -1.28991 0.0218419 0.440613 -1.50787 0.712825 
0.635631 -1.5469 1.44459 1.22265 -0.0640026 3.28525 1.13253 -0.597892 3.10781 
0.827188 -1.39554 2.14115 0.997692 -1.06468 2.71698 1.26482 0.458219 3.26129 
-0.0830528 -0.410293 -1.0895 -0.241837 0.17623 -1.49901 0.164196 -1.10789 -0.241384 
-0.0088644 -0.686055 -0.821331 0.347622 -1.37648 0.428493 0.541398 -1.46864 1.15386 
0.736664 -1.37349 1.86869 -0.175311 -0.148928 -1.30362 0.916005 -1.09543 2.48577 
1.0632 -0.668355 2.93291 1.16744 -0.152744 3.17133 1.22319 0.382346 3.19825 
1.23214 0.862721 3.05136 -0.344634 0.427886 -1.70008 0.0727943 -0.909564 -0.498327 
0.254922 -1.2292 0.149067 -0.10119 -0.445017 -1.0536 0.446998 -1.37471 0.863039 
0.64393 -1.33437 1.58763 0.830818 -1.10961 2.2405 0.989632 -0.726584 2.74056 
1.10772 -0.237252 3.03958 1.17851 0.292777 3.12588 -0.268598 0.110583 -1.5089 
1.19914 0.802587 3.01568 0.162157 -1.06506 -0.124568 -0.019921 -0.695228 -0.749079 
0.352834 -1.26505 0.574447 0.549851 -1.27881 1.30113 0.742306 -1.10783 1.98189 
0.911976 -0.770123 2.53166 -0.195058 -0.196194 -1.27817 1.04342 -0.312842 2.8895 
1.12916 0.202687 3.03679 1.16529 0.720438 2.98066 1.15355 1.17503 2.76133 
-0.369785 0.371393 -1.71755 0.0686422 -0.883242 -0.392464 0.258723 -1.13849 0.289182 
-0.114188 -0.467224 -0.992861 0.455208 -1.20727 1.01231 0.650994 -1.08957 1.71207 
0.830025 -0.800165 2.30579 0.974902 -0.376331 2.72218 1.0748 0.118419 2.92889 
1.12709 0.630188 2.93287 -0.291606 0.0592519 -1.4984 1.12667 1.11829 2.7445 
0.164241 -0.993679 0.00799007 -0.0261452 -0.684133 -0.654342 0.36047 -1.11959 0.723635 
0.55789 -1.05534 1.43448 0.744156 -0.815531 2.06433 -0.210784 -0.227173 -1.23135 
0.901433 -0.430855 2.53597 1.08307 0.543182 2.86542 1.01614 0.0465185 2.80336 
1.10125 1.03303 2.7375 -0.392033 0.317573 -1.71526 1.06991 1.4522 2.45777 
0.0688178 -0.829723 -0.268732 0.265428 -1.01421 0.436207 -0.122886 -0.468676 -0.91089 
0.463832 -1.00537 1.15234 0.655086 -0.815707 1.80972 0.823129 -0.473056 2.3312 
0.952378 -0.0232198 2.65966 1.06911 0.942645 2.71266 1.03429 0.474087 2.77755 
-0.309792 0.0213617 -1.4645 1.04631 1.41245 2.44552 0.169572 -0.889329 0.15055 
-0.0281723 -0.646528 -0.541021 0.369213 -0.938933 0.86798 0.563758 -0.800741 1.54515 
0.740469 -0.502237 2.10929 -0.221937 -0.239053 -1.1622 0.883187 -0.0848141 2.49613 
0.980731 0.398034 2.67533 1.02969 0.886615 2.65483 1.0333 1.30921 2.48182 
-0.409871 0.271103 -1.68842 0.0724706 -0.743984 -0.13259 0.273739 -0.854066 0.58222 
0.980809 1.69984 2.14152 -0.127189 -0.445109 -0.808842 0.471085 -0.770353 1.27403 
0.654283 -0.517532 1.87281 0.808734 -0.135702 2.31299 0.921506 0.325269 2.55396 
0.986599 0.810571 2.59146 1.00326 1.27348 2.44591 -0.322526 -0.000608812 -1.40508 
0.967956 1.61057 2.18962 -0.0263935 -0.57783 -0.412793 0.176948 -0.748939 0.295543 
0.377182 -0.723279 0.997827 0.565486 -0.518846 1.62473 -0.228127 -0.228124 -1.07054 
0.729674 -0.174605 2.11193 0.856426 0.259583 2.41207 0.937561 0.733143 2.51042 
0.971682 1.19809 2.42179 -0.422074 0.237221 -1.63328 0.0785449 -0.622179 0.0092192 
0.941589 1.54231 2.19049 -0.127183 -0.392109 -0.689127 0.281786 -0.657392 0.717343 
0.474727 -0.505112 1.36764 0.899894 1.89174 1.86092 0.64689 -0.201232 1.89546 
0.932916 1.1185 2.37959 0.785876 0.20419 2.25009 0.882198 0.65964 2.4089 
-0.329409 -0.00197246 -1.31921 -0.0217349 -0.473645 -0.275746 0.890366 1.81979 1.9129 
0.184469 -0.570558 0.433108 0.911069 1.46225 2.18287 0.381985 -0.474699 1.10253 
-0.229374 -0.189637 -0.958445 0.561078 -0.214974 1.66586 0.887085 1.04169 2.31603 
0.71079 0.159981 2.07036 0.820831 0.594766 2.28631 -0.427517 0.221848 -1.54694 
0.871345 1.74835 1.93894 0.085149 -0.461472 0.146804 -0.123703 -0.304766 -0.557362 
0.286915 -0.425227 0.829808 0.873686 1.38652 2.15283 0.472433 -0.214761 1.42422 
0.834714 0.973781 2.23001 0.631852 0.126568 1.87486 0.754348 0.540371 2.14444 
0.817427 2.0616 1.58142 -0.330237 0.0232991 -1.2075 0.843434 1.68135 1.93854 
-0.0160624 -0.330134 -0.139514 0.189235 -0.354232 0.55037 0.811551 1.99974 1.64159 
0.829495 1.32156 2.09831 0.380795 -0.198001 1.17108 -0.226526 -0.118241 -0.831498 
0.549222 0.103673 1.66431 0.776852 0.916884 2.12344 0.683617 0.495848 1.98572 
-0.425219 0.231941 -1.42786 0.798169 1.93428 1.6831 -0.118592 -0.178635 -0.423089 
0.807384 1.62558 1.91028 0.0892792 -0.260545 0.266938 0.285588 -0.161821 0.906035 
0.46294 0.0935189 1.43919 0.779454 1.26941 2.02133 0.608627 0.45833 1.81069 
0.714692 0.870008 1.9997 0.735017 2.21029 1.3085 -0.325594 0.0831024 -1.07377 
0.771488 1.88522 1.68248 -0.0120598 -0.145146 -0.0164406 0.18644 -0.103223 0.629547 
-0.221889 -0.0092693 -0.701187 0.764546 1.58318 1.85688 0.730758 2.16236 1.36865 
0.372552 0.0993474 1.19901 0.529353 0.429584 1.61927 0.725236 1.22905 1.92657 
0.648292 0.826447 1.86068 0.722446 2.10642 1.42099 -0.414231 0.275643 -1.27552 
0.735508 1.85235 1.64928 -0.113347 -0.0121344 -0.295175 0.0834708 -0.0206071 0.343489 
0.277488 0.124285 0.943169 0.445489 0.412082 1.41079 0.716893 1.55729 1.78177 
0.577372 0.787731 1.70541 0.667361 1.18748 1.81989 0.652588 2.34173 1.04172 
-0.317105 0.18808 -0.925035 0.695625 2.07586 1.41529 -0.214166 0.132129 -0.569758 
0.17741 0.170856 0.671792 -0.0232377 0.0859881 0.0493352 0.356408 0.40954 1.18399 
0.692591 1.84517 1.5834 0.501488 0.755843 1.53254 0.605287 1.14705 1.69914 
0.66667 1.52475 1.70065 0.645959 2.31446 1.08576 0.646967 2.25904 1.1637 
-0.393571 0.364046 -1.09006 0.655122 2.08915 1.34726 0.0723053 0.24031 0.3859 
0.261376 0.424406 0.93745 0.4203 0.734034 1.34099 -0.134866 0.211572 -0.257508 
0.538255 1.10908 1.56215 0.64876 1.82532 1.52036 0.612989 1.49009 1.60916 
0.569518 2.45935 0.779098 -0.269723 0.31187 -0.662312 0.608357 2.2878 1.08917 
0.15964 0.458164 0.669641 0.333095 0.724572 1.12901 -0.0384759 0.330532 0.0838569 
0.465907 1.07717 1.40719 0.616722 2.08182 1.297 0.554894 1.45284 1.50515 
0.602253 1.80242 1.45027 0.570634 2.42211 0.863053 -0.367478 0.487384 -0.906928 
-0.160665 0.419826 -0.258729 0.239211 0.728723 0.895027 0.574504 2.29034 1.04899 
0.0497111 0.51028 0.376607 0.387755 1.05337 1.23278 0.491616 1.41843 1.38473 
0.552497 1.77148 1.37401 0.575894 2.0742 1.23955 0.497301 2.55102 0.555917 
-0.261282 0.501067 -0.544626 0.53246 2.44176 0.810892 0.137898 0.745716 0.637 
-0.073117 0.5729 0.0430597 0.303443 1.03879 1.03791 0.422807 1.38811 1.24666 
0.498008 1.74002 1.28428 0.53719 2.29972 0.99395 0.533679 2.05276 1.18555 
0.494859 2.5351 0.613814 0.0283809 0.77082 0.352035 0.212766 1.03362 0.821918 
-0.333794 0.667614 -0.709626 0.4917 2.47374 0.734233 0.34815 1.36493 1.08938 
0.438062 1.70901 1.17884 0.487335 2.02918 1.12112 -0.197646 0.679191 -0.292231 
0.501487 2.28914 0.956913 0.423515 2.63543 0.333207 0.441802 2.59563 0.477043 
-0.0839928 0.816416 0.0550204 0.116462 1.03497 0.586425 0.267899 1.34892 0.913409 
0.372206 1.68297 1.0548 0.436058 2.00129 1.04529 0.460522 2.47408 0.70885 
0.462236 2.27703 0.911062 0.0173991 1.04912 0.338204 -0.301163 0.8627 -0.548509 
0.182869 1.33891 0.720653 0.413777 2.60679 0.459654 0.300496 1.66401 0.911602 
0.378658 1.97612 0.951467 0.41936 2.25527 0.861697 -0.186684 0.931115 -0.209927 
0.425716 2.47733 0.670258 0.361788 2.69942 0.151302 -0.0813731 1.08365 0.0861384 
0.368387 2.68855 0.238388 0.0950885 1.33613 0.515571 0.223542 1.64917 0.751349 
0.370268 2.23444 0.795333 0.390582 2.46368 0.644081 0.314987 1.95822 0.837316 
0.379848 2.62819 0.411637 0.00619866 1.34447 0.302048 -0.264922 1.10878 -0.399079 
0.142003 1.63874 0.575104 0.352704 2.62237 0.409346 0.349259 2.45011 0.601489 
0.314839 2.21992 0.708355 0.245616 1.94432 0.705408 -0.169346 1.22009 -0.135593 
0.324663 2.73311 0.138931 0.297042 2.76053 -0.0344806 -0.0820313 1.3654 0.0852142 
0.0564394 1.6324 0.383965 0.309145 2.73249 0.173333 0.31811 2.6188 0.385576 
0.301505 2.44338 0.536613 0.171428 1.92975 0.558854 0.253206 2.20995 0.602349 
-0.033798 1.63248 0.175859 -0.22775 1.40142 -0.280962 0.2434 2.807 -0.183889 
0.261262 2.80074 -0.0551531 0.280297 2.73989 0.164562 0.0921176 1.91457 0.39624 
0.276592 2.62442 0.333819 0.248222 2.43643 0.456897 0.186726 2.19958 0.482011 
-0.135059 1.55106 -0.0559701 0.240295 2.81646 -0.0433723 0.00636923 1.89174 0.215636 
0.231978 2.62377 0.277515 0.241951 2.76096 0.111758 0.117383 2.18475 0.352382 
0.188204 2.43054 0.358634 -0.0908821 1.83195 0.00954913 0.189294 2.85064 -0.329604 
0.200458 2.85775 -0.232447 -0.195457 1.70082 -0.216441 0.0449881 2.16252 0.213447 
0.181619 2.61636 0.21105 0.204602 2.77087 0.0699733 0.199727 2.853 -0.118334 
0.123776 2.4255 0.245261 -0.0294072 2.11747 0.071678 0.164728 2.76624 0.0347957 
0.167789 2.87399 -0.155747 0.1224 2.61693 0.115016 0.157309 2.89813 -0.329102 
0.0583091 2.4091 0.129466 -0.0998008 2.07916 -0.0707835 -0.172245 1.96149 -0.204883 
0.135451 2.89146 -0.468004 0.138051 2.87643 -0.161856 0.11684 2.76343 -0.0257148 
-0.00978944 2.3768 0.00911376 0.0586324 2.61617 0.00353566 0.12223 2.93049 -0.393745 
-0.0803396 2.32849 -0.117082 0.0992729 2.88157 -0.201428 0.105655 2.94169 -0.359007 
0.089092 2.92471 -0.580033 0.0583107 2.76711 -0.120701 -0.152524 2.23745 -0.239264 
-0.003288 2.59204 -0.0972165 0.0563096 2.87885 -0.249902 0.0711783 2.95905 -0.396238 
0.0690337 2.96715 -0.544633 -0.0711457 2.53648 -0.200399 -0.0056988 2.76784 -0.23411 
0.0495517 2.9518 -0.667864 -0.139458 2.46984 -0.309936 0.0366108 2.96632 -0.430049 
0.0371846 2.99104 -0.587462 0.000622103 2.88342 -0.342477 -0.0652428 2.70086 -0.295654 
0.000627512 2.96128 -0.460352 0.00857552 2.97854 -0.747588 0.00594994 3.0075 -0.626011 
-0.131007 2.66079 -0.404748 -0.0694604 2.82737 -0.412319 -0.0592085 2.91047 -0.485398 
-0.020744 3.01347 -0.641345 -0.054806 2.97316 -0.574382 -0.0255854 2.99961 -0.799359 
-0.124993 2.80766 -0.509997 -0.0492046 3.00994 -0.656602 -0.0547648 3.01549 -0.824992 
-0.118737 2.91665 -0.618864 -0.0787259 3.02317 -0.82098 -0.110659 2.98177 -0.71056 
-0.0981649 3.01488 -0.780571 
