# vtk DataFile Version 3.0
vtk output
ASCII
DATASET POLYDATA
POINTS 724 float
10.7145 -11.2589 11.7417 11.0548 -12.0663 11.729 10.4098 -10.4838 11.8667 
11.3954 -12.8288 11.7648 10.1966 -9.86861 12.1019 10.5901 -10.8999 12.0537 
11.7302 -13.4966 11.7878 10.047 -9.33303 12.4552 10.8687 -11.5691 12.0524 
10.3838 -10.3454 12.2606 11.1639 -12.2432 12.1004 11.4736 -12.907 12.1217 
12.0163 -14.0036 11.7988 10.2226 -9.84293 12.5287 9.96605 -8.85682 12.9101 
10.6396 -10.9888 12.3626 11.7447 -13.4128 12.2118 10.9321 -11.693 12.4035 
10.1143 -9.37797 12.9068 10.428 -10.3985 12.6238 12.2718 -14.4104 11.8282 
9.96286 -8.41133 13.4432 11.2836 -12.4844 12.4709 12.0441 -13.9057 12.2369 
10.0558 -8.89756 13.3588 10.2816 -9.87014 12.9803 10.663 -11.0067 12.7076 
11.634 -13.1822 12.6003 12.5007 -14.7393 11.8996 10.9344 -11.675 12.7579 
10.0187 -8.07251 13.9271 10.19 -9.32731 13.4446 10.4757 -10.4132 13.049 
12.3221 -14.3054 12.2755 10.1147 -8.66079 13.8678 11.2355 -12.3602 12.8665 
12.0024 -13.7937 12.6711 10.6904 -10.9892 13.1157 10.3574 -9.84516 13.497 
10.119 -7.75237 14.4791 12.7151 -15.0124 12.0316 12.5808 -14.6437 12.3284 
11.5785 -13.0525 13.0179 10.154 -8.23805 14.3344 10.9275 -11.588 13.1857 
10.2726 -9.19193 13.9743 10.547 -10.3954 13.5579 12.3707 -14.2996 12.7047 
11.2046 -12.2231 13.3148 10.2612 -8.64428 14.4248 10.4574 -9.76436 14.0676 
10.7485 -10.9508 13.6256 11.9834 -13.7273 13.1128 12.8894 -15.2026 12.2042 
10.2407 -7.85076 14.8701 10.2477 -7.41023 15.1187 12.7395 -14.7714 12.6003 
10.9681 -11.5112 13.7094 11.5456 -12.9143 13.4796 10.4135 -9.12078 14.5521 
10.6569 -10.3483 14.158 12.4304 -14.326 13.0954 10.3095 -8.14722 14.9365 
12.9623 -15.0234 12.6987 11.2264 -12.1005 13.8409 10.8598 -10.9095 14.2425 
10.602 -9.68008 14.691 11.9853 -13.6549 13.5854 10.409 -8.50131 15.0176 
10.3632 -7.55092 15.4637 10.3765 -7.02815 15.7672 13.0761 -15.3647 12.4726 
12.7397 -14.6656 13.1373 11.0705 -11.4439 14.3342 11.5529 -12.7637 13.9964 
10.8085 -10.2753 14.8238 10.5568 -8.94868 15.1413 10.4297 -7.86082 15.5166 
12.4125 -14.2098 13.6738 12.9912 -14.9052 13.2451 10.5153 -6.57077 16.4428 
10.4836 -7.21596 16.0556 13.1717 -15.1712 13.0497 11.3079 -11.9827 14.448 
11.0138 -10.8384 14.9312 10.75 -9.50063 15.3123 10.5281 -8.23552 15.5703 
11.9545 -13.4416 14.1623 13.2583 -15.4729 12.8396 12.7853 -14.5924 13.7774 
10.5443 -7.58311 16.0614 11.2158 -11.3474 15.0217 10.6808 -8.68695 15.6867 
10.9627 -10.1085 15.4877 11.5932 -12.5523 14.5954 12.416 -14.05 14.3127 
10.6112 -6.61692 16.7432 13.1269 -14.922 13.7578 10.7336 -5.89836 17.3653 
10.6458 -7.97109 16.0969 13.338 -15.1975 13.5697 10.8827 -9.2378 15.8813 
11.1686 -10.6758 15.6211 11.4282 -11.8249 15.1188 10.6215 -6.95801 16.654 
11.9613 -13.187 14.7673 13.4231 -15.5224 13.2809 12.8858 -14.5496 14.3717 
10.8037 -8.41518 16.2078 10.6673 -7.31096 16.6092 11.0983 -9.84343 16.101 
11.3618 -11.1637 15.717 11.6747 -12.323 15.2289 12.451 -13.877 14.9171 
13.2445 -14.8882 14.3435 10.7893 -6.10064 17.5003 10.9849 -5.11528 18.3873 
10.767 -7.68974 16.6234 13.4751 -15.1569 14.1924 11.0066 -8.93488 16.4149 
11.299 -10.4048 16.2693 11.5531 -11.6044 15.7932 10.7571 -6.55625 17.2776 
13.5705 -15.5272 13.7762 11.9976 -12.9132 15.3528 12.9346 -14.411 15.0069 
11.0447 -5.179 18.5875 10.9233 -8.10095 16.7321 10.7856 -6.95893 17.1644 
11.2167 -9.5075 16.6627 11.4821 -10.8801 16.3765 11.765 -12.0567 15.8585 
13.2946 -14.7523 15.0208 12.4258 -13.5623 15.5104 10.9548 -5.69809 18.1948 
13.6306 -15.2316 14.5563 11.31 -4.08246 19.7421 10.8815 -7.31938 17.1725 
11.1199 -8.58052 16.9347 11.4069 -10.0483 16.8616 11.6571 -11.3027 16.4406 
12.8764 -14.102 15.6571 10.8982 -6.18479 17.8877 12.0275 -12.5618 15.9452 
13.5173 -14.9272 15.1337 13.7271 -15.4939 14.4282 11.2901 -4.4109 19.6392 
11.0322 -7.71206 17.2678 11.3207 -9.11337 17.1873 10.9219 -6.53403 17.7857 
11.579 -10.5124 16.9859 13.2137 -14.4233 15.7892 11.8416 -11.7139 16.4897 
12.3687 -13.1228 16.09 11.109 -5.21982 18.8949 13.722 -15.1112 15.2728 
11.7047 -3.18765 21.0839 11.2213 -8.16628 17.4534 11.0045 -6.88205 17.7671 
11.5003 -9.62981 17.4025 13.4815 -14.6643 15.8693 11.7417 -10.9182 17.0601 
12.0587 -12.15 16.5568 12.7537 -13.6306 16.288 11.0643 -5.64248 18.6414 
13.8482 -15.432 15.0739 11.391 -4.24597 20.07 11.7336 -3.36275 21.1827 
11.1431 -7.26682 17.8329 11.4129 -8.67133 17.6923 11.6631 -10.0812 17.5471 
11.0749 -6.01084 18.4911 11.9096 -11.3015 17.1158 13.118 -14.035 16.4545 
12.3305 -12.6252 16.6833 13.6504 -14.7834 16.0373 11.3004 -4.64857 19.7498 
13.8234 -15.0595 15.8598 12.1226 -2.09865 22.4592 11.3209 -7.70963 17.9894 
11.5843 -9.16806 17.9084 11.1409 -6.37989 18.4198 11.8196 -10.476 17.6429 
12.1008 -11.6939 17.1863 12.6673 -13.1335 16.8699 13.3821 -14.2756 16.6133 
11.25 -5.04124 19.4773 13.937 -15.3261 15.768 11.6891 -3.6205 21.1119 
11.503 -8.20118 18.2032 11.2638 -6.77911 18.4386 11.7413 -9.61061 18.0678 
11.9812 -10.8449 17.7215 12.0885 -2.52295 22.3642 11.2468 -5.43502 19.2653 
13.6404 -14.5658 16.6261 12.3371 -12.1347 17.2953 13.0057 -13.5574 17.0759 
11.5653 -4.03419 20.7356 13.8361 -14.864 16.5112 12.3859 -1.02968 23.5161 
11.43 -7.2321 18.5547 11.6665 -8.68696 18.4069 11.296 -5.84056 19.1278 
11.8961 -10.0031 18.1866 12.1641 -11.2257 17.8071 12.6265 -12.6154 17.4672 
11.4821 -4.44439 20.3808 13.3353 -13.9615 17.1807 11.9893 -2.99309 22.1021 
13.9741 -15.1837 16.3856 11.6031 -7.72741 18.738 11.4031 -6.27788 19.0839 
11.8182 -9.1264 18.5682 13.6082 -14.3153 17.1729 12.0602 -10.376 18.2908 
11.4517 -4.86497 20.0854 12.3382 -1.64206 23.32 12.3844 -11.6485 17.925 
12.9687 -13.1492 17.6325 11.8562 -3.50612 21.6732 13.8213 -14.6565 17.0679 
12.6246 -0.22165 24.3705 11.5573 -6.75858 19.151 11.7589 -8.21513 18.9214 
11.4769 -5.31656 19.8624 11.972 -9.52546 18.6992 11.7558 -3.97178 21.2545 
12.2468 -10.7617 18.4044 13.2999 -13.6396 17.7096 12.6598 -12.169 18.0671 
12.2356 -2.2955 22.9699 13.9761 -15.0149 16.9354 11.5658 -5.79363 19.7539 
11.7221 -7.27539 19.2991 11.6977 -4.43599 20.8702 11.9037 -8.65903 19.0719 
13.578 -14.0598 17.6779 12.141 -9.91166 18.824 12.1145 -2.96901 22.5053 
12.4722 -11.2131 18.5364 12.5463 -0.916862 24.0949 12.979 -12.7591 18.1929 
13.7963 -14.4414 17.5707 11.701 -4.89641 20.5945 11.7057 -6.3114 19.7672 
12.0102 -3.61183 21.9928 11.8711 -7.77973 19.4589 12.8831 0.446567 25.1277 
12.0539 -9.06777 19.2004 12.3396 -10.3276 18.9612 13.2919 -13.3202 18.23 
12.4349 -1.67414 23.6728 12.7433 -11.7657 18.6782 13.9596 -14.8303 17.4348 
12.2977 -2.59225 23.0747 11.9639 -4.12446 21.6022 11.7659 -5.38629 20.4337 
11.8616 -6.86199 19.8751 13.5591 -13.7982 18.1698 12.0091 -8.23574 19.5923 
12.2249 -9.4755 19.3293 12.5809 -10.8161 19.1247 13.0401 -12.3954 18.7747 
12.7569 -0.391216 24.7407 13.7723 -14.2178 18.0513 12.5533 -1.50656 24.0109 
12.239 -3.27853 22.6439 11.9626 -4.59727 21.3088 11.8824 -5.92627 20.3938 
12.006 -7.39394 20.011 12.1527 -8.65763 19.7061 13.3209 -13.0041 18.7688 
13.1276 1.13707 25.776 12.4334 -9.92229 19.4837 12.8621 -11.4068 19.2919 
13.9372 -14.6354 17.9039 12.803 -0.583067 24.8121 12.4829 -2.24853 23.6013 
12.2234 -3.85245 22.2904 12.0051 -5.08829 21.1127 13.5621 -13.5288 18.6737 
12.0227 -6.50294 20.458 12.139 -7.86957 20.1266 12.32 -9.08137 19.8256 
13.1457 -12.064 19.3818 12.6936 -10.4515 19.683 13.0575 0.499968 25.5725 
13.7594 -13.9838 18.5355 12.4565 -2.93421 23.2488 12.7349 -1.24894 24.4715 
12.2328 -4.36909 21.9997 12.091 -5.62902 21.0263 12.1607 -7.05974 20.5675 
12.2756 -8.30397 20.2234 13.3924 -12.6963 19.3418 12.531 -9.55071 19.983 
12.9939 -11.0852 19.8943 13.3863 1.98722 26.4074 13.918 -14.4327 18.3613 
13.0008 -0.179028 25.3168 12.4623 -3.57254 22.9339 12.6894 -1.91797 24.1308 
12.2648 -4.87692 21.7839 13.5978 -13.2516 19.2106 12.2069 -6.20882 21.0469 
12.2909 -7.55404 20.6679 12.4351 -8.73742 20.3262 13.2762 -11.7643 20.0033 
12.8034 -10.1137 20.2071 13.2596 1.08387 26.0803 13.7681 -13.7353 19.0481 
12.9445 -0.888563 24.9881 12.6727 -2.60343 23.8119 12.4873 -4.15644 22.6592 
12.3245 -5.41276 21.6642 12.3338 -6.7721 21.1282 12.4228 -7.99999 20.7509 
13.4981 -12.401 19.9495 12.6401 -9.21796 20.4725 13.12 -10.7858 20.4626 
13.9096 -14.2228 18.8221 13.6202 2.83505 26.9349 13.1809 0.254082 25.7626 
12.9076 -1.58454 24.6575 12.6857 -3.28976 23.5245 13.6691 -12.967 19.792 
12.5222 -4.70313 22.4423 12.4137 -5.97617 21.6483 12.4615 -7.27533 21.2151 
12.5738 -8.43867 20.8372 13.4061 -11.483 20.6105 12.9113 -9.79811 20.6984 
13.4494 1.71916 26.5424 13.8071 -13.4672 19.61 13.1369 -0.523488 25.4484 
12.8925 -2.29439 24.3445 12.7203 -3.93842 23.2751 12.5697 -5.24334 22.3079 
12.5258 -6.52439 21.7031 12.5911 -7.72825 21.2884 13.6151 -12.1146 20.5718 
12.7665 -8.92047 20.9625 13.2312 -10.4906 20.9773 13.9178 -14.0065 19.2927 
13.8189 3.63767 27.3587 13.3404 0.742066 26.1628 13.1163 -1.26633 25.1417 
12.9026 -3.01852 24.0679 12.7644 -4.53329 23.0762 13.7628 -12.6748 20.411 
12.64 -5.78569 22.2704 12.6496 -7.0207 21.7768 12.7347 -8.16898 21.3605 
13.5169 -11.1979 21.1655 13.0217 -9.49771 21.1662 13.9433 -13.7846 19.7665 
13.3265 -10.1862 21.4364 12.9111 -8.64445 21.4614 12.7778 -7.4716 21.8428 
12.7387 -6.30661 22.3063 13.2993 -0.128088 25.8473 13.1099 -2.01212 24.8436 
12.8137 -5.08742 22.9502 12.9378 -3.71893 23.8401 13.6342 2.38141 26.9862 
13.7191 -11.8203 21.1701 13.8747 -13.1752 20.2287 13.1393 -9.20345 21.6267 
13.6032 -10.8918 21.6487 12.915 -7.90907 21.9032 12.8568 -6.78295 22.3691 
12.8789 -5.61402 22.9124 13.8542 -12.3582 21.0461 12.9884 -4.3568 23.6698 
13.1184 -2.77022 24.5746 13.2983 -0.933397 25.5706 13.4895 1.27596 26.5427 
13.9844 4.37909 27.7362 13.9836 -13.5343 20.2776 13.4127 -9.86646 21.8585 
13.074 -8.37365 21.9796 13.8002 -11.5051 21.7082 12.9826 -7.22143 22.4282 
12.9711 -6.10793 22.9447 13.0473 -4.92677 23.5723 13.1472 -3.50815 24.361 
13.3118 -1.72693 25.3057 13.435 0.302966 26.1992 13.9494 -12.8232 20.9052 
13.812 3.07105 27.4135 13.2695 -8.90736 22.1004 13.6693 -10.5567 22.0699 
13.1136 -7.64855 22.479 13.0851 -6.56005 23.006 13.12 -5.4452 23.5574 
[...]
POINT_DATA 724
VECTORS velocity double
0.087445 -0.01485 -0.383762 0.122247 -0.0419607 -0.369002 -0.0275235 0.0860371 -0.33886 
0.0508154 0.0168106 -0.272165 -0.119953 0.155695 -0.312811 0.0082789 -0.00429295 -0.35174 
-0.0240494 0.0424422 -0.184437 -0.169586 0.170552 -0.322585 0.0720922 -0.0884381 -0.366859 
-0.0786627 0.0711979 -0.312978 0.0592571 -0.0898495 -0.322835 -0.0178594 -0.0181549 -0.233609 
-0.0284336 -0.0216666 -0.173552 -0.138451 0.118849 -0.293851 -0.178382 0.137247 -0.360682 
-0.00568168 -0.0624598 -0.314769 -0.0884491 0.0110632 -0.164248 0.0451419 -0.15338 -0.30783 
-0.159812 0.116212 -0.300003 -0.0844754 0.0150706 -0.26332 0.0157097 -0.131834 -0.218004 
-0.166415 0.0848417 -0.40787 0.00160219 -0.119112 -0.230889 -0.101098 -0.0292007 -0.15467 
-0.150161 0.076359 -0.338108 -0.126695 0.0530766 -0.232304 -0.0153239 -0.119801 -0.24162 
-0.100931 -0.024783 -0.117188 0.0769573 -0.243017 -0.286858 0.0323088 -0.213325 -0.220398 
-0.158734 0.0564988 -0.431343 -0.124366 0.0369177 -0.24638 -0.0741774 -0.0537789 -0.170167 
-0.0569632 -0.128156 -0.199026 -0.116747 0.0134374 -0.340175 0.00514276 -0.193249 -0.141558 
-0.146437 -0.00711854 -0.0803417 -0.00930275 -0.1846 -0.127499 -0.0912373 -0.0279403 -0.135681 
-0.159951 0.0607847 -0.423706 0.138041 -0.334395 -0.35839 0.018287 -0.239396 -0.269033 
-0.0880135 -0.0689034 -0.0211246 -0.108429 -0.00721911 -0.37314 0.0399399 -0.281023 -0.0905001 
-0.0780261 -0.0387882 -0.200995 -0.041716 -0.132837 -0.0401688 -0.0930844 -0.106019 -0.137431 
0.0372869 -0.277323 -0.0127757 -0.0632484 -0.0632627 -0.278669 -0.0428953 -0.103218 -0.0445159 
0.0201807 -0.257984 0.0226149 -0.154653 0.0183711 0.0315294 0.182958 -0.387195 -0.406231 
-0.11495 0.0125029 -0.36718 -0.17521 0.119615 -0.384253 0.0409758 -0.271706 -0.273322 
0.0750639 -0.355206 0.0684521 -0.0377887 -0.131951 0.101754 -0.0266436 -0.111209 -0.143689 
0.00331037 -0.199544 0.0788962 -0.0982497 -0.0701575 -0.0532684 -0.0668278 -0.0545618 -0.312929 
0.121037 -0.338908 -0.326124 0.0941974 -0.362461 0.130041 0.0645959 -0.316854 0.147129 
-0.00215037 -0.151 0.00231224 -0.127462 0.0381761 0.159917 -0.0238878 -0.113672 -0.235784 
-0.123298 0.0630414 -0.326384 -0.205221 0.234605 -0.34121 0.22239 -0.412189 -0.42732 
-0.00383186 -0.174743 -0.131929 0.12504 -0.41126 0.180929 0.0421351 -0.216042 0.211377 
0.0288905 -0.211492 0.10318 0.00466732 -0.150723 -0.133133 -0.0657076 -0.0303806 -0.280692 
-0.100346 0.0265176 0.117542 0.0823448 -0.240252 -0.174985 -0.228914 0.355042 -0.301679 
-0.146541 0.158119 -0.292895 0.171071 -0.334789 -0.292227 0.158525 -0.429603 0.207264 
0.0835725 -0.307619 0.141544 0.00756213 -0.149247 -0.0354249 -0.0152001 -0.113426 -0.221326 
-0.0495514 0.00167679 0.267669 0.252421 -0.396401 -0.393492 -0.00381574 -0.0638965 0.0482132 
-0.0799008 0.0317043 -0.254237 0.146155 -0.401104 0.146086 0.0122268 -0.157141 -0.15134 
0.00735434 -0.14658 0.00865436 0.135754 -0.324916 0.237726 -0.0653847 0.0785108 0.240701 
-0.19068 0.314332 -0.267892 0.111268 -0.177801 -0.0505147 -0.198813 0.369316 -0.207688 
-0.0251967 -0.0744477 -0.209457 0.198813 -0.271523 -0.166363 -0.00311224 -0.12681 -0.103222 
0.0422844 -0.203265 0.00510571 0.189319 -0.443252 0.140589 -0.146845 0.218045 -0.256526 
0.0483638 -0.107197 0.259169 0.27699 -0.346895 -0.299241 0.0293269 -0.0160742 0.149323 
0.00224032 -0.132561 -0.166289 -0.0952739 0.105117 -0.23347 -0.0392778 -0.0567479 -0.109658 
0.0996024 -0.29307 -0.0105906 0.188749 -0.396922 0.137117 -0.0193635 0.0497443 0.233586 
0.142537 -0.130853 0.0630382 -0.161665 0.31924 -0.190657 -0.149263 0.311312 -0.0683668 
-0.0467021 -0.00457757 -0.203296 0.226792 -0.211138 -0.0199959 -0.0205199 -0.0985142 -0.152944 
-0.0378336 -0.0515081 -0.137327 0.150045 -0.364748 -0.0220164 -0.141536 0.26769 -0.213311 
0.303738 -0.291092 -0.171631 0.119322 -0.230501 0.140083 0.0465113 -0.0135206 0.166554 
-0.12096 0.290547 -0.0450849 -0.0212491 -0.0729544 -0.178614 -0.106784 0.179672 -0.211265 
-0.0772448 0.00698337 -0.18067 0.00177494 -0.115073 -0.151936 0.172707 -0.382748 -0.0233843 
0.150909 -0.123285 0.112169 0.0244692 -0.0447681 0.128587 -0.112179 0.265992 -0.0964508 
0.279582 -0.228108 0.0157138 -0.137076 0.445769 0.0678809 -0.0704963 0.0868868 -0.196067 
-0.0399268 -0.0581472 -0.178884 -0.106383 0.0702153 -0.206282 0.051897 -0.197393 -0.151129 
0.0302071 -0.0364895 0.0993642 -0.10674 0.247758 -0.142557 0.143055 -0.309053 -0.0171616 
0.222131 -0.195292 0.0818927 0.342861 -0.264517 -0.0363897 -0.109929 0.400805 0.0513795 
-0.0475646 0.0133555 -0.183132 -0.0954048 0.0383114 -0.203191 -0.0907509 0.20624 -0.157032 
-0.0924055 0.0542036 -0.205677 0.0992739 -0.121093 0.0744646 0.0906353 -0.258295 -0.140473 
0.0625429 -0.159133 -0.00819925 -0.0851577 0.271359 -0.0135049 0.294484 -0.263454 0.058488 
-0.0940529 0.474184 0.238021 -0.0574421 -8.94529e-05 -0.186639 -0.0705217 0.147198 -0.160196 
-0.137383 0.124268 -0.213313 0.176213 -0.20648 0.0622299 -0.0570943 -0.00257384 -0.188083 
0.0981544 -0.262939 -0.121986 0.0118156 -0.0704183 0.0034662 -0.0677371 0.226802 -0.0425548 
0.376288 -0.302555 0.0278121 -0.0915168 0.434214 0.0823302 -0.068868 0.46128 0.213853 
-0.0557058 0.0871509 -0.161534 -0.0997325 0.0590536 -0.202558 -0.143308 0.147604 -0.194633 
-0.0534021 0.19234 -0.0649241 -0.0193667 -0.063869 -0.162009 0.0376902 -0.0942524 0.0274829 
0.0601379 -0.188166 -0.0920587 0.222525 -0.262284 0.0550666 -0.0736494 0.36704 0.0535581 
0.307006 -0.320197 0.0526333 0.00104903 0.325819 0.382307 -0.0623576 0.0595962 -0.172676 
-0.138703 0.129374 -0.200235 -0.0403643 0.153787 -0.08238 -0.125682 0.127621 -0.159649 
0.005733 -0.0999574 -0.1281 0.00279788 -0.0767767 -0.0384112 0.0880551 -0.150042 0.0519685 
-0.05206 0.292819 0.0351298 0.384438 -0.367098 0.0461107 -0.0562155 0.455913 0.174181 
-0.0943171 0.0834639 -0.191122 -0.0327346 0.112753 -0.0992802 -0.151752 0.161389 -0.169098 
-0.0986461 0.0919463 -0.117326 0.0192864 0.356381 0.325416 -0.0290839 0.22359 0.0204924 
0.167669 -0.231753 0.0704056 0.00519433 -0.0836104 -0.0805383 -0.0104062 -0.0293111 0.0343901 
-0.0566551 0.44734 0.119478 0.25723 -0.312578 0.0713629 -0.101378 0.254056 0.112404 
-0.0422689 0.0888448 -0.125767 -0.127062 0.12298 -0.190908 -0.00873531 0.163972 0.00485349 
-0.143602 0.159246 -0.121299 -0.071781 0.0619059 -0.0694399 -0.0218442 -0.00749129 -0.00888298 
-0.0464289 0.401541 0.0848985 0.0345884 -0.069173 0.10154 0.0168121 0.376215 0.265233 
0.352959 -0.38491 0.0677105 -0.0737765 0.0984 -0.161486 0.00263384 0.11574 -0.0175113 
-0.140671 0.14015 -0.160517 0.109176 -0.153703 0.13383 -0.123511 0.140954 -0.0669866 
-0.0261441 0.325236 0.0665826 -0.00464444 0.293455 0.201486 -0.055191 0.0619964 -0.0147659 
-0.0346955 0.0537223 0.0892369 -0.00340444 0.398251 0.191061 0.197578 -0.250448 0.133858 
-0.268049 0.380639 -0.308868 -0.00624442 0.0897275 -0.0562093 -0.107809 0.117956 -0.18125 
-0.000267386 0.234697 0.0553779 -0.135444 0.132728 -0.109955 -0.0161487 0.402927 0.129559 
-0.0986747 0.124164 -0.0123137 0.00149983 0.024304 0.178482 -0.0532887 0.104815 0.050518 
0.0554019 0.321273 0.257873 0.298106 -0.345599 0.122375 0.0202832 0.153809 0.0389701 
-0.0409806 0.0944221 -0.113166 -0.0143963 0.370824 0.0894264 -0.125204 0.119061 -0.168447 
0.0681485 -0.0638977 0.223318 -0.117135 0.11219 -0.0512016 0.0607126 0.327938 0.239813 
-0.0763045 0.130365 0.035447 -0.14009 0.327895 -0.110108 -0.0483264 0.144662 0.138659 
0.147701 -0.167754 0.226026 0.000536835 0.301022 0.0684899 0.0189177 0.102243 0.000346337 
0.0364641 0.329475 0.167883 -0.0828254 0.107513 -0.161439 -0.282001 0.516855 -0.410335 
-0.123907 0.0990665 -0.129298 -0.0912863 0.0951609 0.00394869 -0.01169 0.1063 0.237758 
0.00298969 0.310888 0.0968786 -0.0630713 0.174005 0.0732377 0.241188 -0.27467 0.207125 
0.0871369 0.298802 0.214608 0.0196867 0.320043 0.106731 0.0176704 0.214031 0.0512809 
-0.0147888 0.0901758 -0.0672639 0.0473743 0.0131257 0.302985 -0.10957 0.102417 -0.176672 
-0.107563 0.0671039 -0.0757561 -0.0659223 0.108209 0.0363365 -0.0473031 0.206085 0.133195 
-0.215136 0.408299 -0.292643 0.115472 -0.0920473 0.320806 -0.0228305 0.321131 0.00502363 
0.0884813 0.260017 0.190239 0.0138575 0.286835 0.066212 0.0188143 0.140164 0.0170856 
-0.0632134 0.0949808 -0.136687 -0.116519 0.0762939 -0.160042 -0.00889511 0.158404 0.238602 
-0.197535 0.559323 -0.251142 -0.0803962 0.0403201 -0.0242615 -0.049468 0.167974 0.036395 
0.195988 -0.201002 0.304026 -0.167974 0.391681 -0.228669 0.0816152 0.290436 0.140164 
0.0689371 0.224392 0.130862 0.012844 0.229763 0.0362972 0.0444952 0.0607938 0.336847 
-0.0116395 0.103824 -0.0469326 -0.0996148 0.0870828 -0.176737 -0.105794 0.0375237 -0.121855 
-0.0317659 0.211346 0.0615199 -0.0508216 0.0526261 -0.00415347 -0.189398 0.498508 -0.260104 
0.102117 -0.0424755 0.387976 0.119815 0.225122 0.181049 -0.0574519 0.337633 -0.076404 
0.0448545 0.198949 0.073337 0.00305171 0.16699 0.000595352 -0.0612921 0.092342 -0.120011 
-0.115721 0.0611477 -0.183532 0.00479742 0.167051 0.16675 -0.0799615 0.00423585 -0.0782502 
-0.0299942 0.124435 -0.0294458 -0.0996631 0.486931 0.000985217 0.168178 -0.146272 0.390308 
-0.150709 0.418782 -0.192554 0.115082 0.142749 0.160858 0.0527254 0.2943 0.0602996 
0.0201721 0.173292 0.0258921 0.0537393 0.0702012 0.3005 -0.0294455 0.123877 -0.0537255 
-0.102505 0.0773895 -0.170744 -0.112347 0.0244581 -0.164791 -0.011416 0.174794 -0.0273291 
-0.0456203 0.0168058 -0.0597025 -0.117227 0.491249 -0.118593 0.104089 -0.0299312 0.399291 
-0.0749643 0.350732 -0.0797246 0.122393 0.221053 0.148292 0.0856822 0.0869515 0.110205 
-0.00967258 0.144599 -0.0175971 -0.0773742 0.100105 -0.115437 -0.124201 0.051671 -0.191979 
0.0206211 0.136241 0.0621848 -0.0900102 -0.00491552 -0.132336 -0.015842 0.0955301 -0.0778292 
0.1573 -0.123295 0.443367 -0.0401994 0.392585 0.181676 -0.102463 0.424412 -0.100146 
0.0254376 0.298764 0.0427257 0.141002 0.105673 0.181845 0.0649474 0.0450947 0.204751 
0.0435508 0.0666352 0.0529747 -0.0511995 0.12088 -0.0649297 -0.118059 0.0772266 -0.161774 
-0.125899 0.0213298 -0.188692 0.00640372 0.137936 -0.0646331 -0.0510063 0.0149022 -0.107835 
-0.0579361 0.429375 0.0160185 0.112074 -0.0533295 0.34098 -0.0509963 0.347339 -0.000954755 
0.108845 0.229828 0.139862 0.120019 0.00161998 0.167837 -0.0053022 0.0669168 -0.000263974 
-0.098396 0.102356 -0.112014 -0.140459 0.0503378 -0.185914 0.0318306 0.0925229 0.00594432 
-0.106288 0.00305621 -0.167469 -0.00798598 0.0983252 -0.0941896 0.157707 -0.133848 0.447128 
-0.0388687 0.414108 0.162297 -0.0570018 0.414734 -0.0213344 0.0285307 0.289569 0.114719 
0.144571 0.110212 0.200158 0.0743174 -0.0449383 0.123048 0.0678616 0.00497052 0.114925 
-0.0575684 0.0737189 -0.0478849 -0.13575 0.0811119 -0.147948 -0.143183 0.0258004 -0.190661 
0.0217561 0.127068 -0.0400066 -0.063074 0.0333458 -0.13826 0.159196 -0.165157 0.40328 
-0.00629856 0.117542 -0.0948457 -0.12389 0.0183249 -0.178815 -0.155453 0.0574977 -0.169558 
-0.105407 0.0775009 -0.0887827 -0.0143081 0.337415 0.0788925 0.103499 0.23281 0.198968 
0.0172957 -0.040393 0.0679494 0.134574 -0.0271969 0.221135 -0.0134346 0.345779 0.124719 
0.0405192 0.0658045 0.0362421 0.111626 -0.0939609 0.242751 -0.0777108 0.0547584 -0.151689 
0.0343096 0.138013 -0.000475619 -0.15638 0.0388628 -0.17846 -0.138943 0.0739422 -0.12131 
-0.0396469 -0.0126965 0.015348 0.0626394 -0.0239382 0.105254 0.0953027 -0.111674 0.202049 
0.138382 0.135338 0.24367 0.0550374 0.269689 0.218955 -0.0216709 0.377993 0.0378737 
-0.0987385 0.505871 -0.0787586 0.151272 -0.199552 0.329118 -0.0113426 0.133009 -0.0969487 
-0.136193 0.0376665 -0.175231 0.0511192 0.0654944 0.106196 -0.154785 0.0658091 -0.145926 
-0.0860395 0.0174111 -0.0317103 0.0427686 -0.126138 0.156191 0.129252 -0.000539697 0.262397 
0.117997 0.223101 0.312203 0.0145641 0.326071 0.119821 0.0932094 -0.118729 0.181063 
0.00462709 0.330339 0.149474 -0.0898631 0.0715791 -0.156664 0.0409739 0.153067 0.015061 
-0.153432 0.0593733 -0.163152 -0.115048 0.0422131 -0.0745907 -0.00891594 -0.0971638 0.0994049 
0.0950334 -0.105989 0.251955 0.0610719 -0.0294908 0.17694 0.138227 0.162996 0.326566 
0.084633 0.248445 0.292728 0.00857521 0.309876 0.0914347 -0.199714 0.577889 -0.441236 
0.126963 -0.219427 0.263904 -0.0212984 0.135526 -0.107453 -0.133694 0.0633241 -0.171537 
0.0619958 0.0811798 0.150777 -0.126724 0.0618755 -0.114183 -0.0481475 -0.0514326 0.0389077 
0.0514579 -0.141835 0.209652 0.115041 0.0632995 0.301896 0.145744 0.202659 0.425141 
0.0315761 0.305964 0.125077 0.0754641 -0.122993 0.223586 -0.0225745 0.420068 0.0219253 
-0.0919196 0.087958 -0.165284 0.0395281 0.157044 -0.000662246 -0.123708 0.0782315 -0.148785 
-0.069631 -0.00261916 -0.0229055 0.0106531 -0.122164 0.144306 0.0672777 -0.0176438 0.252625 
0.0756079 -0.033876 0.263457 0.103472 0.230497 0.312281 0.152992 0.179232 0.433693 
0.0306427 0.259031 0.124353 0.0957678 -0.216268 0.270065 -0.267511 0.556733 -0.689522 
-0.0299442 0.129403 -0.12866 -0.106788 0.0937073 -0.174252 0.0687069 0.0957488 0.146595 
-0.0753038 0.0434982 -0.0820972 -0.017288 -0.073639 0.0652882 0.0365188 -0.0757533 0.202097 
0.106129 0.136015 0.349896 0.0429218 0.262753 0.116691 0.1711 0.1785 0.487897 
0.0704467 -0.111608 0.312733 -0.111227 0.534523 -0.27374 -0.0744485 0.110996 -0.182496 
0.03166 0.144854 -0.0383332 -0.0695023 0.0833694 -0.133401 -0.0281436 -0.0164003 -0.0153868 
0.0050169 -0.0615432 0.114292 0.0756144 -0.000331831 0.279085 0.0486632 0.0764531 0.251314 
0.178634 0.176403 0.523641 0.100852 0.217803 0.260781 0.0260589 0.312442 0.076664 
0.0763262 -0.197902 0.347988 -0.0273092 0.127161 -0.15886 -0.0551855 0.113914 -0.171571 
-0.211676 0.450675 -0.585514 0.0684723 0.0974602 0.101801 -0.0245646 0.0366041 -0.0826315 
-0.0121281 -0.0166614 0.0109388 0.00535864 0.04822 0.14718 0.111517 0.190542 0.401551 
0.181258 0.156254 0.478835 0.0524496 0.203301 0.108901 0.0747401 -0.0933273 0.371441 
-0.126507 0.535043 -0.344061 0.0239838 0.124301 -0.0863749 -0.033419 0.131432 -0.189479 
-0.0122434 0.078654 -0.126898 -0.0116832 0.0310319 -0.0821681 0.080634 0.0114098 0.249265 
-0.0212398 0.062616 0.0279648 0.0284187 0.186946 0.23378 0.202004 0.159431 0.559119 
0.0852303 0.191362 0.172483 0.0726016 -0.174369 0.427282 -0.00492335 0.13088 -0.176373 
0.0310322 0.320183 0.0315441 0.0617188 0.0826141 0.0352831 0.00362658 0.106784 -0.147324 
0.00297729 0.0627603 -0.136075 -0.111443 0.416568 -0.347937 -0.029172 0.0940447 -0.0917727 
0.171299 0.136326 0.404285 -0.0262934 0.185476 0.0781823 0.127609 0.213805 0.427044 
0.0805071 -0.0772231 0.368224 0.0266884 0.106859 -0.121643 -0.171417 0.474048 -0.452512 
0.0194838 0.11855 -0.147366 0.0769989 0.14527 0.110305 0.0242292 0.0739034 -0.139433 
0.0789481 0.00936852 0.178954 -0.0177931 0.110211 -0.176455 0.21191 0.135247 0.531358 
-0.0505141 0.195499 -0.0616138 0.0248891 0.260001 0.211368 0.0759777 -0.153247 0.450039 
-0.0120308 0.442829 -0.103689 0.0333995 0.110181 -0.128762 0.0538719 0.0580893 -0.0248544 
0.0447347 0.0691623 -0.10314 0.149183 0.110643 0.296277 0.00661699 0.0960873 -0.19657 
0.141126 0.210816 0.393651 -0.0492108 0.194683 -0.168081 -0.0392694 0.27831 0.0257416 
-0.0306723 0.478221 -0.157558 0.0816014 -0.0708068 0.306444 0.0741456 0.15073 0.0717925 
0.044636 0.0785591 -0.0892105 0.0597187 0.0544054 -0.0484633 -0.138492 0.364043 -0.360991 
0.205345 0.104645 0.455801 0.0335989 0.058555 -0.151183 0.0700227 -0.00840775 0.0984099 
-0.0284846 0.162785 -0.216969 0.0359412 0.275898 0.159205 -0.0598793 0.268147 -0.101926 
0.0773088 -0.140154 0.400678 -0.0632268 0.484795 -0.221767 0.0530217 0.0262073 -0.0257688 
0.126388 0.0711043 0.185192 0.0669427 0.0321402 0.00611338 0.0554951 0.0115598 -0.0618498 
0.000520979 0.10379 -0.204227 0.143249 0.187315 0.306424 -0.0511083 0.225347 -0.166013 
-0.0256423 0.2851 -0.0146851 0.0237449 0.573481 -0.0343008 0.0734149 -0.079776 0.212378 
0.0551646 0.270698 0.0075348 0.0662367 0.00147162 0.0517813 0.0691505 -0.0346115 0.0431815 
0.0581281 -0.0376549 0.0598288 0.183546 0.0616173 0.34749 -0.0768799 0.308714 -0.20997 
0.0268766 0.034161 -0.143596 -0.027145 0.157295 -0.173755 0.0480018 0.24539 0.0650886 
-0.0415139 0.244567 -0.0997198 -0.0907527 0.411886 -0.249779 0.0687736 -0.139953 0.296646 
0.104006 0.0476798 0.0820497 0.0593713 -0.0382283 0.0889539 0.0738475 -0.0750468 0.139621 
0.0450924 -0.0348732 -0.0492493 -0.000224929 0.0816492 -0.146584 0.139714 0.132813 0.227964 
-0.0316815 0.175045 -0.115988 -0.00598674 0.23086 -0.0798254 0.0597215 0.653223 0.043542 
0.0547169 -0.10467 0.145772 0.0185574 0.417549 -0.0716531 0.0497154 -0.0839434 0.122867 
0.0545926 -0.0979804 0.0641812 0.0695683 -0.109444 0.21249 0.0216653 0.011266 -0.102191 
0.144334 0.00392658 0.190542 -0.0116049 0.0965682 -0.0917437 -0.0190463 0.168271 -0.117234 
0.0544769 0.188124 -0.00397866 -0.0204106 0.347282 -0.0834847 -0.0743379 0.298078 -0.179102 
0.0448025 -0.155099 0.205252 0.06973 0.225413 0.000434211 0.0567985 -0.151103 0.178152 
0.0348467 -0.0528826 -0.0420446 0.00957946 0.0251861 -0.0529765 0.0567097 -0.138029 0.252341 
-0.0114142 0.0884811 -0.0917434 0.135518 0.0469577 0.196972 0.00521176 0.16635 -0.12452 
0.0825601 0.701514 0.0916328 0.0378634 -0.144222 0.209753 -0.0418126 0.368946 -0.123925 
0.0391374 -0.115478 0.0413753 0.026333 -0.0293829 -0.0194459 0.0528264 -0.190949 0.275125 
0.00464823 0.00806139 -0.0365746 0.103155 0.0165663 0.0414853 -0.00753606 0.099821 -0.132695 
0.0713378 0.109506 0.0497283 -0.00666643 0.326649 -0.040154 0.0209161 -0.185776 0.241335 
0.0433549 -0.209534 0.335986 0.0352131 -0.068621 0.00389568 0.0301246 0.414052 -0.0330127 
0.0369779 -0.176587 0.148029 0.0226871 -0.0621838 0.0265002 -0.00156302 0.0193625 -0.0841157 
0.0253651 0.109444 -0.0411063 0.11791 -0.0290099 0.108122 0.09433 0.718735 0.116889 
0.0291539 -0.213041 0.338739 -0.0308372 0.224087 -0.0562586 0.0350406 -0.107364 0.0343372 
0.0318018 -0.22838 0.267365 0.0376968 -0.109981 0.0767233 0.0127325 -0.0629848 -0.0109501 
0.0110865 0.0604455 -0.0419991 0.0680449 0.274583 -0.00491448 0.0905336 0.026852 0.118889 
0.0274029 0.42269 0.0253739 0.0274385 -0.160344 0.0989634 0.0450056 -0.126708 0.0958841 
0.0112631 -0.24004 0.3627 -0.00583059 0.279593 -0.00593718 0.030424 -0.140731 0.0711007 
0.0134132 -0.00882047 -0.000920858 0.0543131 0.0711787 0.101801 0.0212059 -0.257242 0.348601 
0.0853345 0.0506642 0.000457475 0.100526 0.718055 0.132023 0.0185235 0.327858 0.0279687 
0.0171545 -0.216366 0.192824 0.0422553 -0.122975 0.085678 0.0473499 -0.202173 0.146703 
0.0236897 -0.0873621 0.0586449 0.0387926 0.0622613 0.118873 0.0520144 0.382508 0.047862 
0.083941 -0.0106488 0.0488633 0.0316562 -0.130718 0.0815635 0.00305728 -0.271559 0.367599 
0.0580532 -0.228408 0.193618 0.00693321 0.174941 0.0504955 0.0381475 -0.170504 0.128143 
0.0381131 0.0165553 0.155513 0.0635946 0.0378744 0.114762 0.00539776 -0.246619 0.252278 
0.0722395 0.292161 0.0246908 0.102406 0.708341 0.139322 0.0176049 -0.160988 0.109606 
0.0436846 0.43004 0.0704914 0.0578637 -0.209796 0.193736 0.0540832 -0.250392 0.200206 
0.0511136 0.0768053 0.185845 0.0649197 0.0971504 -0.0115474 0.0444823 -0.0505813 0.198422 
0.0405077 0.234392 0.120062 0.0477654 -0.168538 0.158869 -0.00662154 -0.245248 0.246814 
0.0676451 -0.308591 0.262146 0.0844903 0.350661 0.130857 0.0507576 0.0483659 0.0321644 
0.052121 0.073546 0.256734 0.0540368 -0.134083 0.241541 0.00711654 -0.171522 0.12806 
0.0321431 0.289525 0.0765159 0.101787 0.692218 0.143641 0.0326633 -0.139416 0.122941 
0.0728494 -0.318937 0.290856 0.0490693 0.143869 0.168521 0.0689917 0.249013 0.038076 
0.0397976 0.0825466 0.116964 0.0648211 -0.228429 0.282378 0.0598944 0.035503 0.319451 
0.0649209 -0.269409 0.26635 0.00416501 -0.150118 0.115861 0.099383 0.674217 0.145575 
0.0437403 0.325707 0.100051 0.101746 0.284744 0.236111 0.0753321 -0.317606 0.321434 
0.0417476 0.146135 -0.00252537 0.0412843 0.111351 0.219307 0.0695635 -0.0343283 0.365902 
0.0359487 -0.152839 0.155907 0.064128 0.108495 0.213568 0.0816878 -0.370973 0.348778 
0.0222843 0.122019 0.0285028 0.10335 0.319313 0.186338 0.0779879 -0.131805 0.390283 