# vtk DataFile Version 3.0
vtk output
ASCII
DATASET POLYDATA
POINTS 724 float
10.6868 -11.2532 11.8696 11.0157 -12.0508 11.8517 10.4191 -10.5114 11.98 
11.3806 -12.8336 11.8547 10.236 -9.91911 12.2058 10.5879 -10.8973 12.1702 
11.74 -13.5092 11.8492 10.1029 -9.38877 12.5607 10.8457 -11.5381 12.1734 
10.4096 -10.3673 12.364 11.1449 -12.2112 12.2068 11.4812 -12.8996 12.1984 
12.0266 -13.9941 11.8579 10.2679 -9.88052 12.6247 10.0248 -8.90184 13.0272 
10.6417 -10.9666 12.4659 11.7758 -13.4145 12.2662 10.9171 -11.6399 12.5042 
10.1668 -9.41511 13.0035 10.4555 -10.4015 12.7098 12.2675 -14.3655 11.9022 
10.0176 -8.43948 13.5765 11.2831 -12.4424 12.5467 12.0784 -13.8926 12.2897 
10.1052 -8.92218 13.4681 10.3231 -9.88574 13.0551 10.6679 -10.9655 12.7864 
11.6691 -13.1723 12.6391 12.477 -14.6596 11.9955 10.923 -11.602 12.83 
10.0713 -8.09229 14.0694 10.231 -9.33842 13.5236 10.4999 -10.3936 13.1044 
12.3414 -14.2603 12.3433 10.1534 -8.6654 13.9792 11.2329 -12.293 12.9138 
12.0519 -13.7877 12.6996 10.6933 -10.9269 13.1578 10.3876 -9.83445 13.5407 
10.1727 -7.77495 14.6204 12.672 -14.904 12.1499 12.5759 -14.5641 12.4182 
11.6094 -13.028 13.0264 10.1907 -8.23743 14.4586 10.9138 -11.4932 13.2164 
10.2988 -9.17879 14.0402 10.561 -10.3502 13.5718 12.4013 -14.2609 12.7525 
11.1915 -12.1277 13.3216 10.2832 -8.6247 14.5184 10.4721 -9.72926 14.0828 
10.7424 -10.8649 13.6199 12.0367 -13.7301 13.1056 12.8316 -15.0774 12.3372 
10.2805 -7.85845 14.9942 10.3069 -7.45303 15.2486 12.7269 -14.6817 12.6906 
10.9438 -11.3926 13.6895 11.5605 -12.8686 13.4498 10.4233 -9.08443 14.6016 
10.6564 -10.2811 14.1333 12.4623 -14.2984 13.1166 10.3339 -8.13282 15.0434 
12.9237 -14.913 12.805 11.1958 -11.9771 13.8021 10.8395 -10.8041 14.1954 
10.6031 -9.62891 14.6916 12.0316 -13.6654 13.5373 10.4191 -8.4667 15.0996 
10.4064 -7.57627 15.5758 10.4451 -7.10801 15.8838 13.0047 -15.2314 12.6115 
12.7402 -14.6055 13.1828 11.0308 -11.3071 14.2761 11.542 -12.6893 13.9314 
10.7987 -10.2029 14.7895 10.5566 -8.90002 15.189 10.4546 -7.85612 15.6144 
12.446 -14.2134 13.6406 12.9634 -14.825 13.3034 10.5912 -6.68932 16.5461 
10.5341 -7.27212 16.1571 13.1156 -15.0618 13.1446 11.2573 -11.8377 14.3819 
10.9865 -10.735 14.8832 10.7474 -9.44996 15.3254 10.5363 -8.20282 15.6488 
11.9773 -13.4423 14.0779 13.1756 -15.3441 12.967 12.7849 -14.5667 13.7659 
10.5741 -7.5993 16.151 11.1691 -11.2143 14.9724 10.6787 -8.63739 15.7412 
10.9592 -10.0573 15.4838 11.5511 -12.4409 14.5197 12.44 -14.0729 14.2376 
10.6752 -6.72286 16.8355 13.0884 -14.8606 13.7766 10.8003 -6.02316 17.4364 
10.6578 -7.95237 16.1718 13.2712 -15.1069 13.6247 10.8839 -9.19547 15.9171 
11.1541 -10.607 15.6183 11.3679 -11.6771 15.0726 10.6719 -7.03344 16.7433 
11.9512 -13.1517 14.6834 13.3308 -15.4083 13.378 12.8739 -14.5396 14.3259 
10.8054 -8.375 16.2673 10.7017 -7.35073 16.6915 11.1106 -9.82367 16.1371 
11.33 -11.0675 15.7206 11.6147 -12.1886 15.1854 12.4604 -13.8928 14.841 
13.1948 -14.8414 14.3247 10.8441 -6.20927 17.566 11.0357 -5.22203 18.4106 
10.7859 -7.694 16.6958 13.3981 -15.0845 14.2001 11.0142 -8.90319 16.4674 
11.311 -10.3873 16.315 11.5061 -11.4855 15.8023 10.8056 -6.64788 17.3516 
13.4683 -15.4296 13.8327 11.9618 -12.8352 15.3085 12.9166 -14.4027 14.9525 
11.0863 -5.27917 18.6031 10.9331 -8.08122 16.7954 10.8232 -7.02232 17.2383 
11.2426 -9.51067 16.7229 11.4821 -10.8432 16.4281 11.7109 -11.9306 15.8696 
13.2412 -14.7081 14.9836 12.421 -13.5475 15.4685 10.9936 -5.7902 18.2284 
13.5359 -15.1536 14.5513 11.3566 -4.23257 19.719 10.9077 -7.35281 17.2415 
11.1346 -8.56327 16.996 11.4421 -10.0724 16.9299 11.6421 -11.2403 16.493 
12.8645 -14.0867 15.6236 10.9353 -6.27061 17.9373 11.9832 -12.4585 15.9547 
13.4407 -14.8599 15.1056 13.6115 -15.404 14.4402 11.3277 -4.54657 19.6218 
11.0506 -7.72063 17.3319 11.3533 -9.12767 17.2551 10.9539 -6.60612 17.8405 
11.6095 -10.5311 17.0541 13.1768 -14.3792 15.763 11.8148 -11.6318 16.5393 
12.3512 -13.0699 16.0949 11.1388 -5.31394 18.9001 13.6221 -15.0219 15.2518 
11.7372 -3.34643 21.0066 11.2421 -8.16864 17.5172 11.03 -6.93462 17.823 
11.5465 -9.67254 17.4726 13.4193 -14.5927 15.8465 11.7612 -10.9188 17.1229 
12.0297 -12.0653 16.6003 12.7502 -13.6058 16.2861 11.0885 -5.72211 18.6569 
13.7216 -15.3299 15.0632 11.4224 -4.39233 20.0424 11.7577 -3.51724 21.1133 
11.1636 -7.29901 17.8888 11.4473 -8.69235 17.76 11.7106 -10.1309 17.6105 
11.0944 -6.07901 18.5144 11.9176 -11.2827 17.1704 13.1025 -14.0002 16.4425 
12.3138 -12.5644 16.7152 13.5734 -14.694 16.0164 11.326 -4.77347 19.7319 
13.7194 -14.9517 15.8398 12.1237 -2.20842 22.3359 11.3431 -7.73141 18.048 
11.6312 -9.21215 17.9742 11.1561 -6.43495 18.4489 11.861 -10.5188 17.695 
12.1011 -11.6634 17.2297 12.6682 -13.1086 16.8807 13.3489 -14.2221 16.5923 
11.2686 -5.14238 19.466 13.8079 -15.2031 15.7502 11.7088 -3.77332 21.0552 
11.5355 -8.22981 18.267 11.2762 -6.81973 18.473 11.792 -9.6649 18.1227 
12.0139 -10.8761 17.7602 12.0835 -2.64264 22.2594 11.2581 -5.51381 19.2593 
13.5811 -14.4861 16.599 12.3376 -12.109 17.322 13.0079 -13.5456 17.06 
11.585 -4.18455 20.6963 13.7481 -14.7586 16.4841 12.4201 -1.11885 23.4839 
11.4451 -7.26342 18.5972 11.7096 -8.72821 18.4698 11.3006 -5.89964 19.1273 
11.9437 -10.0566 18.2259 12.1882 -11.2472 17.8304 12.6352 -12.6137 17.4677 
11.4985 -4.58025 20.3526 13.3203 -13.9346 17.1419 11.985 -3.1192 22.0166 
13.8553 -15.0551 16.3599 11.6284 -7.76074 18.7918 11.4037 -6.32023 19.0907 
11.8654 -9.17313 18.6206 13.568 -14.2605 17.1238 12.1011 -10.4236 18.3129 
11.4616 -4.97649 20.0634 12.3398 -1.74229 23.2568 12.4031 -11.6698 17.9298 
12.9795 -13.165 17.5978 11.8584 -3.63973 21.6114 13.7524 -14.5708 17.0192 
12.7136 -0.359277 24.4746 11.5602 -6.7908 19.1701 11.7955 -8.25435 18.9813 
11.4784 -5.39892 19.8445 12.0172 -9.56998 18.7351 11.7622 -4.1074 21.2123 
12.2794 -10.804 18.409 13.2965 -13.6431 17.6447 12.6775 -12.2034 18.0482 
12.2177 -2.40345 22.8872 13.8749 -14.8989 16.8909 11.5604 -5.84918 19.7415 
11.7362 -7.30777 19.3367 11.7035 -4.56173 20.8408 11.9458 -8.6984 19.1274 
13.5516 -14.0337 17.599 12.1801 -9.95004 18.8411 12.0953 -3.07886 22.4278 
12.4973 -11.2573 18.525 12.5928 -1.03426 24.1348 12.9938 -12.8042 18.1415 
13.7437 -14.3819 17.4915 11.702 -4.99993 20.5719 11.7002 -6.34866 19.7674 
11.9991 -3.7227 21.9382 11.8992 -7.81569 19.5125 12.9733 0.269599 25.2538 
12.0954 -9.10084 19.2431 12.37 -10.361 18.9606 13.2933 -13.3502 18.1446 
12.4336 -1.78114 23.6439 12.7634 -11.8232 18.6521 13.8766 -14.7367 17.3621 
12.2692 -2.69232 23.0055 11.9584 -4.23287 21.5673 11.7611 -5.4615 20.417 
11.8669 -6.8937 19.8976 13.5403 -13.797 18.064 12.046 -8.26971 19.6509 
12.261 -9.49879 19.3548 12.6025 -10.8538 19.1131 13.0538 -12.4607 18.7247 
12.826 -0.536054 24.8321 13.7307 -14.1826 17.9409 12.5604 -1.61857 24.0111 
12.2104 -3.36601 22.5818 11.959 -4.69537 21.2871 11.8769 -5.97641 20.3885 
12.0274 -7.42627 20.0567 12.1918 -8.68318 19.7593 13.3212 -13.0511 18.6817 
13.1917 0.951509 25.8545 12.4604 -9.9375 19.4925 12.8773 -11.4632 19.2785 
13.869 -14.5652 17.7995 12.8564 -0.721846 24.8816 12.4556 -2.34668 23.5564 
12.2013 -3.92885 22.2472 12.0018 -5.16793 21.1009 13.5448 -13.5435 18.5553 
12.027 -6.53967 20.4741 12.1725 -7.89885 20.1857 12.3555 -9.09483 19.8666 
13.1538 -12.1314 19.3562 12.7103 -10.4708 19.6847 13.1173 0.331629 25.6502 
13.7231 -13.9651 18.4022 12.4169 -3.00989 23.1895 12.7528 -1.36831 24.4948 
12.2186 -4.4375 21.9753 12.0907 -5.68754 21.0266 12.1815 -7.09158 20.6081 
12.3144 -8.32477 20.2848 13.3877 -12.7461 19.2782 12.5579 -9.55392 20.0098 
13.0026 -11.1273 19.9026 13.4218 1.82506 26.4126 13.8596 -14.3805 18.2285 
13.0479 -0.324663 25.3722 12.4244 -3.62182 22.8806 12.6713 -2.01948 24.1106 
12.2587 -4.93693 21.7753 13.5775 -13.2696 19.103 12.2172 -6.25199 21.0656 
12.3254 -7.5804 20.7255 12.4727 -8.74671 20.3817 13.2775 -11.8197 20.0075 
12.8184 -10.1211 20.2269 13.2984 0.920057 26.119 13.7318 -13.7215 18.9098 
12.9677 -1.01321 25.0092 12.6317 -2.67829 23.7628 12.4589 -4.18769 22.6221 
12.3282 -5.46287 21.6704 12.3601 -6.80642 21.1677 12.4644 -8.01786 20.8155 
13.4881 -12.4406 19.9216 12.6702 -9.21828 20.5174 13.1242 -10.8182 20.4856 
13.8557 -14.1789 18.6712 13.6362 2.70209 26.8805 13.2135 0.108705 25.7918 
12.8983 -1.69001 24.6409 12.6385 -3.32668 23.4641 13.6449 -12.9766 19.7168 
12.5076 -4.72725 22.4242 12.4312 -6.0176 21.6707 12.5012 -7.30158 21.2701 
12.6159 -8.44701 20.9009 13.402 -11.5261 20.6253 12.9281 -9.80508 20.7339 
13.471 1.57524 26.5427 13.7683 -13.4461 19.4909 13.153 -0.646785 25.4458 
12.8556 -2.37375 24.2969 12.6797 -3.94171 23.2191 12.5713 -5.26685 22.3078 
12.5591 -6.55896 21.7415 12.6381 -7.74562 21.3514 13.6021 -12.14 20.5621 
12.8019 -8.92342 21.0191 13.2328 -10.5238 21.0045 13.8645 -13.9601 19.1399 
13.8322 3.49692 27.3085 13.36 0.601271 26.1714 13.1065 -1.37062 25.1028 
12.8535 -3.05688 24.0007 12.7387 -4.52066 23.0348 13.738 -12.6712 20.3666 
12.6592 -5.81079 22.2866 12.6952 -7.0479 21.8273 12.7824 -8.17862 21.4251 
13.5082 -11.2371 21.1704 13.0423 -9.5108 21.2118 13.8897 -13.7283 19.6287 
13.3276 -10.2255 21.4635 12.9522 -8.6521 21.5219 12.8297 -7.49105 21.9005 
12.774 -6.33253 22.3365 13.3048 -0.247327 25.8231 13.0747 -2.09454 24.7769 
12.807 -5.07526 22.9271 12.8915 -3.71238 23.7663 13.6414 2.2637 26.9511 
13.7041 -11.8372 21.149 13.8361 -13.1406 20.1437 13.1646 -9.2232 21.677 
13.5907 -10.9343 21.6401 12.9669 -7.92263 21.964 12.9032 -6.80755 22.4105 
12.8916 -5.6104 22.9071 13.8319 -12.3455 21.0041 12.9549 -4.32217 23.6023 
13.0706 -2.81711 24.4923 13.2812 -1.03211 25.5022 13.499 1.14768 26.5357 
14.0152 4.20471 27.7678 13.9327 -13.4666 20.1658 13.4154 -9.91051 21.887 
13.119 -8.38709 22.0392 13.7822 -11.522 21.6637 13.0341 -7.24342 22.4781 
12.9996 -6.11409 22.9555 13.0315 -4.88646 23.5199 13.1017 -3.5092 24.2723 
13.2725 -1.80804 25.2053 13.4322 0.188508 26.165 13.9174 -12.7804 20.8407 
13.8116 2.95738 27.3685 13.2987 -8.9319 22.1529 13.6548 -10.6041 22.0567 
13.1644 -7.66857 22.5348 13.1234 -6.57443 23.0315 13.122 -5.41396 23.5238 
[...]
POINT_DATA 724
VECTORS velocity double
0.955968 -2.36213 1.163 1.24235 -1.79865 1.35169 0.692946 -3.10919 0.84245 
1.53335 -1.37473 1.36582 0.45255 -3.90587 0.482116 0.792576 -2.95806 0.867319 
1.75857 -0.990007 1.23407 0.180104 -4.77971 0.0852199 1.02813 -2.45006 1.05882 
0.568072 -3.64361 0.556902 1.29267 -2.05677 1.15544 1.57471 -1.68103 1.15498 
1.87485 -0.663379 1.0593 0.333927 -4.38328 0.225829 -0.13326 -5.66532 -0.292925 
0.764636 -3.19099 0.708048 1.77269 -1.45081 1.02155 1.02339 -2.70241 0.875475 
0.0636629 -5.19812 -0.121012 0.503181 -3.95112 0.369493 1.92758 -0.395519 0.880755 
-0.472153 -6.47371 -0.573803 1.36339 -2.26694 0.957457 1.92115 -1.12513 0.864375 
-0.250083 -6.03133 -0.421513 0.231333 -4.78273 0.0205958 0.702404 -3.49632 0.520822 
1.67752 -1.96402 0.85702 1.9468 -0.193878 0.708653 0.95534 -3.03615 0.673094 
-0.738386 -7.00105 -0.679693 -0.0877416 -5.69889 -0.300213 0.418737 -4.31516 0.178748 
1.99796 -0.837935 0.701719 -0.467348 -6.57436 -0.534231 1.25238 -2.69374 0.734627 
1.91053 -1.58783 0.689408 0.620695 -3.85917 0.331287 0.119982 -5.22216 -0.134676 
-0.972448 -7.37046 -0.648678 1.95005 -0.0512796 0.540288 2.02704 -0.575669 0.551693 
1.58569 -2.40473 0.671091 -0.734911 -7.08229 -0.577174 0.848426 -3.45353 0.460196 
-0.23162 -6.16957 -0.364109 0.33007 -4.72805 0.0342858 2.03159 -1.17128 0.523193 
1.12316 -3.13697 0.528414 -0.537467 -6.83107 -0.438857 0.024657 -5.66831 -0.16791 
0.535828 -4.27955 0.184446 1.88112 -1.98346 0.527918 1.94685 0.0241194 0.402951 
-0.952436 -7.38925 -0.487489 -1.15305 -7.53747 -0.471447 2.05442 -0.624433 0.406929 
0.752178 -3.89782 0.306093 1.47092 -2.83754 0.51147 -0.287562 -6.4838 -0.243831 
0.267142 -5.16002 0.022233 2.04542 -1.39986 0.390322 -0.799465 -7.24694 -0.381425 
2.03841 -0.399972 0.300916 1.0081 -3.58285 0.389792 0.485492 -4.71276 0.180098 
-0.00110183 -6.03311 -0.00448963 1.8326 -2.34679 0.412973 -0.594111 -7.04141 -0.233386 
-1.05751 -7.44684 -0.269278 -1.24582 -7.45536 -0.215317 1.94037 0.0591362 0.265514 
2.08041 -1.03397 0.298156 0.695111 -4.33996 0.303295 1.34732 -3.25305 0.422343 
0.270341 -5.54836 0.228427 -0.316608 -6.74269 -0.00976917 -0.887033 -7.32765 -0.159926 
2.01338 -1.81372 0.313151 2.0735 -0.772381 0.229886 -1.23946 -7.10731 0.0574525 
-1.09209 -7.30756 -0.0222801 2.02576 -0.362247 0.195654 0.926791 -4.00918 0.398742 
0.496315 -5.10882 0.404624 0.0140426 -6.33775 0.292581 -0.653043 -7.15258 -0.00891981 
1.70456 -2.80564 0.393078 1.93079 0.0473074 0.157865 2.0678 -1.3575 0.256975 
-0.903644 -7.22846 0.0734136 0.690379 -4.73008 0.524945 -0.338213 -6.89452 0.23487 
0.31981 -5.86837 0.58915 1.20723 -3.66946 0.467001 1.93943 -2.17782 0.358895 
-1.1074 -6.90576 0.208274 2.05976 -0.87819 0.216055 -1.06544 -6.25514 0.352432 
-0.656078 -7.0979 0.219377 2.01252 -0.449149 0.167328 0.0388777 -6.52771 0.583821 
0.544725 -5.41615 0.784334 0.880225 -4.38239 0.613094 -1.00754 -6.97338 0.232856 
1.54167 -3.18734 0.508513 1.91547 0.0051104 0.107882 2.02502 -1.48727 0.337981 
-0.324858 -6.88639 0.460763 -0.850404 -6.97143 0.298129 0.369661 -6.06881 0.922858 
0.71029 -5.01438 0.888694 1.09666 -3.9968 0.680478 1.83091 -2.39612 0.531618 
2.01618 -0.959036 0.310399 -0.95586 -6.20777 0.423792 -0.812423 -5.0897 0.560751 
-0.614681 -6.89919 0.425551 1.97548 -0.544458 0.250817 0.0617221 -6.56491 0.803391 
0.580854 -5.59295 1.11826 0.853865 -4.63279 0.94295 -0.913316 -6.47734 0.420691 
1.88889 -0.0403956 0.129255 1.37271 -3.44882 0.730355 1.92979 -1.60195 0.543719 
-0.736199 -4.9947 0.601618 -0.299884 -6.73602 0.640305 -0.785773 -6.58846 0.466189 
0.388676 -6.12695 1.12999 0.713287 -5.15971 1.19536 1.00687 -4.2092 0.967805 
1.92505 -1.05118 0.529796 1.63868 -2.6405 0.777712 -0.781051 -5.49853 0.563296 
1.9031 -0.399715 0.330697 -0.63888 -4.03911 0.765042 -0.576039 -6.57021 0.575262 
0.0623394 -6.45945 0.936003 0.579331 -5.64131 1.30711 0.815794 -4.75576 1.21349 
1.75235 -1.79232 0.808348 -0.782372 -5.89648 0.55254 1.18963 -3.66815 0.982991 
1.8722 -0.72798 0.552745 1.83095 -0.0627318 0.254846 -0.60564 -4.20817 0.739443 
-0.29133 -6.45841 0.75361 0.364648 -6.05602 1.21783 -0.692799 -6.04856 0.591421 
0.684736 -5.19367 1.36438 1.74251 -1.21592 0.824691 0.914129 -4.33611 1.20507 
1.3822 -2.92299 1.00297 -0.658829 -4.82513 0.655294 1.79103 -0.393936 0.570975 
-0.323092 -3.75178 0.903443 0.0319858 -6.23208 0.995327 -0.526545 -6.10405 0.675412 
0.537534 -5.59004 1.37622 1.70322 -0.789468 0.815072 0.757039 -4.78958 1.36678 
1.02139 -3.83576 1.18522 1.48808 -2.07986 1.01767 -0.650682 -5.14689 0.647493 
1.73763 -0.0219773 0.448549 -0.545812 -4.09997 0.781952 -0.281652 -3.89597 0.888837 
-0.287967 -6.06535 0.816628 0.300248 -5.88068 1.23049 0.627213 -5.1529 1.43012 
-0.591174 -5.37802 0.670413 0.818777 -4.38687 1.34458 1.50064 -1.35114 1.00015 
1.13184 -3.1821 1.16121 1.62649 -0.508153 0.828754 -0.567028 -4.2816 0.746176 
1.62953 -0.212357 0.737562 0.250459 -3.39835 1.05027 -0.0153142 -5.91063 1.01187 
0.457574 -5.46112 1.37615 -0.468591 -5.5332 0.731107 0.682811 -4.75815 1.43368 
0.877223 -3.92729 1.30726 1.21661 -2.35061 1.12273 1.45091 -0.874168 0.97314 
-0.551645 -4.50213 0.724659 1.58806 0.0855223 0.65674 -0.323728 -4.0082 0.864229 
0.211519 -5.63156 1.21048 -0.281629 -5.59675 0.842198 0.540435 -5.0536 1.43779 
0.723394 -4.36805 1.41242 0.173608 -3.72524 0.988299 -0.499389 -4.74137 0.726421 
1.42756 -0.447491 0.918286 0.933822 -3.33279 1.25203 1.22902 -1.57255 1.06376 
-0.419863 -4.09654 0.826801 1.42962 -0.117896 0.85185 0.718821 -3.14879 1.25926 
-0.0620737 -5.54411 1.00544 0.348482 -5.27627 1.34707 -0.40425 -4.96451 0.762971 
0.589731 -4.67376 1.454 0.755025 -3.92704 1.37185 0.973539 -2.57409 1.17355 
-0.447849 -4.21253 0.796782 1.22349 -0.910312 0.987059 0.0151345 -3.98027 0.928164 
1.41308 0.201294 0.770049 0.119084 -5.35926 1.18145 -0.26035 -5.13351 0.848594 
0.424519 -4.91261 1.41839 1.22111 -0.428302 0.918009 0.622082 -4.28944 1.44519 
-0.4163 -4.38084 0.781028 0.592138 -3.45774 1.11447 0.775741 -3.37196 1.3076 
0.99692 -1.70615 1.06287 -0.157322 -4.16253 0.882168 1.23232 -0.0559804 0.856707 
1.01972 -3.5018 1.51711 -0.092891 -5.2002 0.988268 0.228515 -5.07987 1.31335 
-0.339356 -4.59456 0.793884 0.47186 -4.55624 1.45107 -0.254067 -4.28526 0.852639 
0.640614 -3.8519 1.41596 1.0083 -0.973046 0.951766 0.787548 -2.6318 1.20316 
0.378082 -3.80389 1.00229 1.23251 0.286202 0.78599 -0.226202 -4.81066 0.854223 
0.0405228 -5.12898 1.15111 -0.278817 -4.40538 0.833424 0.291769 -4.76787 1.39221 
1.02369 -0.439669 0.866609 0.502922 -4.18082 1.46144 0.148176 -4.16544 0.93416 
0.645286 -3.29412 1.35801 0.889887 -3.55453 1.27997 0.795094 -1.7792 1.05614 
1.04471 -0.0329967 0.802222 -0.241095 -4.56306 0.836029 -0.103915 -4.97236 0.971298 
-0.0233338 -4.46029 0.900116 0.11686 -4.93367 1.28233 1.19843 -3.95168 1.8176 
0.334707 -4.44389 1.4384 0.520259 -3.73674 1.45346 0.81008 -1.03111 0.908601 
0.685672 -3.73394 1.10208 0.636076 -2.57367 1.25045 1.05715 0.330485 0.737464 
0.386968 -4.17526 0.983088 -0.0900058 -4.65714 0.887414 -0.168245 -4.75983 0.876828 
-0.0171707 -5.00969 1.1218 0.836023 -0.472675 0.799432 0.161398 -4.67423 1.36676 
0.366626 -4.08477 1.46653 0.520864 -3.16533 1.4193 0.625587 -1.7698 1.07912 
1.05227 -3.87545 1.45886 0.865527 -0.0428475 0.72262 0.807995 -3.89446 1.15363 
0.208846 -4.60958 0.953196 -0.0995384 -4.82333 0.890849 -0.0942359 -4.95341 0.969759 
0.0239398 -4.89463 1.25173 0.195665 -4.3825 1.42142 0.632857 -1.06146 0.891015 
1.37936 -4.20712 2.21384 0.387108 -3.64252 1.48137 0.505874 -2.44784 1.33039 
0.889481 0.338153 0.655877 1.04689 -4.02245 1.41618 0.614645 -4.25779 1.05403 
0.109108 -4.95612 0.951472 -0.0822192 -4.99761 0.921142 0.659717 -0.512251 0.744558 
-0.0551067 -5.05354 1.10067 0.0469598 -4.6784 1.33886 0.225526 -4.04411 1.46069 
0.488164 -1.6936 1.15222 0.392634 -3.05961 1.47712 1.22019 -4.23056 1.84848 
0.693358 -0.0756088 0.642305 0.44255 -4.73946 1.02266 0.952273 -4.1398 1.25988 
0.0525458 -5.21356 0.961187 -0.0670607 -5.17172 0.991668 -0.0489122 -4.99136 1.22118 
0.0692781 -4.40829 1.39677 0.485032 -1.05107 0.926987 0.249165 -3.61327 1.49059 
0.386265 -2.33496 1.41805 1.66294 -4.2365 2.79309 0.729087 0.317049 0.564078 
1.12799 -4.26288 1.58994 0.304284 -5.21116 1.02672 0.822523 -4.43809 1.16372 
0.0125266 -5.40941 0.986229 0.502414 -0.541971 0.73129 -0.0776032 -5.27111 1.09561 
-0.0472969 -4.79849 1.30449 0.0941198 -4.08308 1.43976 0.376414 -1.60752 1.25131 
0.263877 -3.03093 1.50636 1.35974 -4.35802 2.16598 0.531064 -0.119985 0.586604 
1.06541 -4.37255 1.41823 0.661486 -4.90644 1.12101 0.196443 -5.58821 1.04425 
-0.031926 -5.55622 1.03706 -0.103744 -5.21613 1.19586 -0.037396 -4.53176 1.35971 
0.37114 -1.01624 1.014 0.119115 -3.66273 1.47381 0.272888 -2.30093 1.46639 
0.57756 0.275429 0.481959 1.92085 -4.14085 3.31982 1.19662 -4.4195 1.78076 
0.980692 -4.65078 1.3141 0.493104 -5.44105 1.11996 0.37614 -0.554371 0.780198 
0.102246 -5.8455 1.06839 -0.0885068 -5.61462 1.11159 -0.121048 -5.01984 1.26674 
-0.0191265 -4.20326 1.39946 0.277476 -1.57607 1.31485 0.142931 -3.08858 1.49288 
1.54459 -4.34729 2.55637 0.389803 -0.164255 0.585599 1.12759 -4.53902 1.58185 
0.843481 -5.11292 1.25802 0.336884 -5.90886 1.1404 0.00739252 -5.98724 1.10447 
-0.141462 -5.52876 1.18533 -0.122548 -4.7371 1.3123 0.280305 -1.00115 1.09726 
0.00528704 -3.78171 1.42848 0.165835 -2.35954 1.45342 0.442022 0.222112 0.431132 
2.05823 -4.10737 3.59286 1.28551 -4.48678 2.00198 1.07272 -4.82466 1.48297 
0.664061 -5.67962 1.24378 0.194408 -6.22957 1.16687 0.282464 -0.563923 0.86731 
-0.0852425 -6.00339 1.15416 -0.173633 -5.30657 1.23747 -0.111098 -4.3879 1.34226 
0.182504 -1.62785 1.31042 0.0346586 -3.21411 1.43849 0.333068 0.165655 0.428542 
0.0660085 -2.49345 1.3902 -0.0896748 -3.95137 1.35952 -0.184839 -4.99381 1.26771 
-0.157685 -5.87499 1.20382 1.16901 -4.62591 1.73736 0.969233 -5.31089 1.42995 
0.0608173 -6.383 1.19702 0.474091 -6.20392 1.25947 1.71979 -4.266 2.95505 
0.195327 -1.0473 1.12308 0.282163 -0.202227 0.649401 -0.0597146 -3.38528 1.35509 
0.0898794 -1.7581 1.25224 -0.18049 -4.61298 1.28226 -0.20063 -5.61773 1.23764 
-0.0559206 -6.3745 1.23414 0.203882 -0.612607 0.932473 0.295948 -6.56775 1.28844 
0.80053 -5.92285 1.40817 1.11543 -4.9127 1.6447 1.40567 -4.46869 2.26937 
2.07966 -4.15132 3.6199 0.248459 0.105944 0.476284 -0.0260187 -2.68131 1.29784 
-0.16442 -4.15284 1.2828 0.108445 -1.16506 1.08631 -0.219591 -5.2705 1.25173 
-0.140322 -6.21321 1.27211 0.138778 -6.73451 1.32357 0.597143 -6.49474 1.41555 
1.03925 -5.42911 1.6191 1.2157 -4.64931 1.89 0.201768 -0.270304 0.743726 
1.82215 -4.21951 3.24766 -0.138788 -3.58488 1.26145 0.00068007 -1.95315 1.16627 
-0.22251 -4.85603 1.2485 -0.189697 -5.92588 1.2979 0.0120415 -6.71738 1.36713 
0.402162 -6.889 1.44703 0.122631 -0.721709 0.931316 0.893567 -6.11247 1.61164 
1.1309 -4.92705 1.7818 1.54079 -4.38229 2.58424 2.01407 -4.15043 3.50297 
0.181612 0.0349703 0.556291 -0.108563 -2.905 1.19607 -0.21423 -4.37149 1.22871 
0.0209332 -1.34659 1.01137 -0.214294 -5.54915 1.30342 -0.0735125 -6.54118 1.41637 
0.238763 -7.0689 1.49777 0.697061 -6.75653 1.62074 1.06148 -5.44441 1.80018 
1.28583 -4.61433 2.06284 0.128454 -0.367357 0.777489 1.83404 -4.25883 3.35272 
-0.197456 -3.8021 1.18684 -0.0829896 -2.19559 1.07167 -0.224592 -5.1064 1.28629 
-0.121481 -6.23824 1.45686 0.12018 -7.05889 1.57103 0.0381405 -0.879153 0.871517 
0.501965 -7.19623 1.65908 1.14073 -4.89124 1.89361 0.941109 -6.18115 1.84342 
1.64581 -4.28697 2.90172 0.120371 -0.0595984 0.612448 1.9097 -3.90415 3.36929 
-0.17624 -3.14915 1.109 -0.226661 -4.60268 1.2456 -0.0630837 -1.5746 0.922585 
-0.147155 -5.84352 1.47258 0.0508929 -6.89157 1.66312 0.350315 -7.40121 1.73859 
0.762585 -6.93504 1.87849 1.38179 -4.51788 2.27988 1.05137 -5.35456 1.95094 
0.0493883 -0.506863 0.740986 1.7838 -4.29371 3.25483 -0.223534 -4.03434 1.17786 
-0.15675 -2.46661 0.986098 -0.164093 -5.38215 1.4536 0.0184374 -6.59668 1.75114 
0.257995 -7.41581 1.86506 -0.0460398 -1.08083 0.785751 0.584777 -7.45866 1.94185 
0.938829 -6.11271 2.07859 1.17886 -4.78102 2.0064 1.66881 -4.2764 3.09431 
0.0507397 -0.191803 0.604854 -0.217676 -3.40732 1.07652 -0.179537 -4.86584 1.39569 
1.80341 -3.38593 3.35188 -0.140607 -1.84223 0.839086 0.000274628 -6.20321 1.80321 
0.221517 -7.28055 2.02856 0.461115 -7.70933 2.06777 0.783415 -6.97893 2.18918 
1.02836 -5.2026 2.04747 1.52899 -4.32569 2.68679 -0.0337936 -0.689559 0.662547 
1.69127 -4.27534 3.09294 -0.211519 -2.75702 0.940073 -0.196015 -4.29947 1.29699 
-0.0212979 -5.73468 1.79665 0.216383 -7.01591 2.18669 -0.126411 -1.32551 0.698602 
0.406279 -7.75559 2.2624 0.637611 -7.61505 2.3118 0.894886 -5.9332 2.28892 
1.27229 -4.59706 2.17555 -0.0286055 -0.36683 0.54154 -0.213313 -3.69307 1.15843 
1.57082 -4.29879 2.98808 -0.205103 -2.14261 0.784233 -0.0532169 -5.2091 1.72459 
0.210496 -6.63778 2.28303 1.71891 -2.90081 3.40381 0.40412 -7.64601 2.49526 
1.02132 -5.00901 2.08842 0.553651 -7.91805 2.50111 0.751979 -6.86363 2.5471 
-0.11646 -0.916042 0.571709 -0.229635 -3.07089 0.987232 1.66358 -3.97126 2.96017 
-0.0948999 -4.63979 1.59097 1.38024 -4.38184 2.43391 0.184157 -6.16781 2.28423 
-0.197561 -1.61132 0.632752 0.418555 -7.39395 2.69559 0.826763 -5.69167 2.44214 
0.532903 -7.96868 2.74911 0.642416 -7.57597 2.7794 -0.111889 -0.587207 0.452382 
1.51529 -4.34885 2.93494 -0.1419 -4.04136 1.40629 -0.241856 -2.47215 0.801759 
0.134513 -5.63239 2.19016 1.0437 -4.79355 2.1081 0.415615 -7.01271 2.79407 
0.671169 -6.58882 2.92688 0.544991 -7.83161 2.99431 0.595674 -7.88135 3.0299 
1.64597 -2.50102 3.42446 -0.192961 -1.19002 0.49511 1.39046 -4.27233 2.60631 
-0.188355 -3.43386 1.18631 0.06794 -5.05607 2.01902 1.63425 -3.51842 2.94806 
0.756317 -5.40788 2.50502 0.381357 -6.53449 2.76911 -0.247714 -1.93438 0.62409 
0.555441 -7.53993 3.15793 0.581317 -7.23866 3.32116 0.58864 -7.87095 3.2729 
-0.191771 -0.860378 0.370381 1.4812 -4.29152 2.78652 -0.228113 -2.84336 0.952296 
1.08445 -4.5478 2.14381 -0.00662405 -4.45971 1.79318 0.31835 -5.99458 2.63879 
0.544277 -7.13625 3.19735 0.558855 -6.14707 3.23901 0.589926 -7.65488 3.44685 
0.547277 -7.42844 3.60358 1.58148 -2.19408 3.37949 -0.252015 -1.51616 0.470909 
1.34037 -4.27639 2.68246 -0.0808865 -3.86225 1.53384 0.235995 -5.41994 2.43273 
-0.256312 -2.29359 0.726902 0.717159 -5.03849 2.41277 1.5917 -3.04327 3.0189 
0.506316 -6.66561 3.12006 0.583483 -7.31471 3.51336 0.456754 -6.5615 3.81046 
0.531713 -7.30766 3.77204 1.48742 -4.01228 2.65679 -0.255754 -1.20339 0.342711 
1.1393 -4.2789 2.24657 -0.147939 -3.28123 1.2603 0.144005 -4.82698 2.17597 
0.443552 -6.15601 2.95435 0.566009 -6.91782 3.46957 0.459415 -5.51533 3.23082 
0.516276 -7.0321 3.83231 0.410003 -6.56283 4.09455 1.51955 -1.9549 3.27503 
-0.269362 -1.91025 0.569714 1.28763 -4.32284 2.61058 -0.204047 -2.71946 0.983795 
0.361637 -5.62111 2.72769 0.0496385 -4.22098 1.88378 0.536219 -6.50144 3.3373 
0.801442 -4.51221 2.12819 0.499611 -6.69917 3.79621 0.381347 -6.34987 4.17577 
0.321581 -5.7024 3.94509 1.53784 -2.60402 3.09269 1.49471 -3.57449 2.64068 
-0.273825 -1.6565 0.463991 1.14952 -4.21052 2.42762 0.267643 -5.06536 2.45929 
0.490201 -6.07057 3.14115 0.485063 -6.36514 3.67803 -0.0454298 -3.58339 1.55174 
0.359802 -6.07841 4.14271 0.450825 -4.80107 2.69382 0.256919 -5.55798 4.24887 
1.45646 -1.76386 3.12527 -0.18316 -2.65052 1.00641 1.37091 -3.99623 2.4574 
0.424861 -5.6134 2.8985 0.473067 -6.05242 3.49428 0.165529 -4.47687 2.15255 
0.344222 -5.80868 4.03779 0.937118 -4.11711 2.08398 0.222569 -5.31319 4.30347 
0.247991 -4.85898 3.42893 1.49148 -2.55661 2.99199 -0.213169 -2.19142 0.783566 
0.0395809 -3.76495 1.7508 0.457046 -5.74988 3.26398 1.15664 -4.26612 2.37013 
0.339854 -5.11076 2.61466 0.337107 -5.56846 3.87329 0.201789 -5.07667 4.25051 
0.157724 -4.68088 3.82891 0.601984 -4.15649 2.01469 1.40071 -1.63093 2.97126 
-0.0617737 -3.13367 1.38422 1.43364 -3.29103 2.55643 0.425856 -5.42379 3.00157 
0.229535 -4.51124 2.26593 0.341081 -5.37253 3.65271 0.189786 -4.87594 4.14389 
0.116853 -4.44374 3.9557 0.976364 -4.1542 2.20553 0.28845 -4.1538 2.45241 
1.44139 -2.2253 2.99823 0.370321 -5.03743 2.70914 0.353776 -5.21215 3.3865 
-0.0686019 -2.86436 1.27399 1.30521 -3.78267 2.28636 0.185633 -4.71204 3.99283 
0.0959309 -4.24251 3.97557 0.13087 -3.98741 2.90354 0.123342 -3.87212 1.90552 
0.74565 -3.91415 1.88935 1.34444 -1.52663 2.80345 1.41131 -2.39333 2.84761 
0.293743 -4.58004 2.40365 0.36467 -5.05336 3.09709 0.19225 -4.5929 3.78975 
0.0841311 -4.0832 3.94639 0.0642937 -3.77533 3.168 1.04229 -4.16992 2.13048 
0.436662 -3.72274 1.75424 0.356771 -4.84001 2.81326 0.079292 -3.40521 1.67315 
0.212876 -4.52251 3.52894 1.34864 -3.16412 2.39348 0.0780281 -3.95756 3.87899 
0.0352801 -3.59446 3.31088 0.179529 -3.51119 1.96104 0.231682 -4.13277 2.14881 
0.799193 -4.04811 1.94098 1.29981 -1.46568 2.66356 0.326122 -4.5507 2.54433 
1.36264 -2.09681 2.81573 0.243805 -4.47732 3.23088 0.0790984 -3.86979 3.76492 
0.0536405 -3.28432 2.22862 0.527581 -3.67848 1.61539 0.0210469 -3.4523 3.39309 
1.18506 -3.73568 2.06602 0.271886 -4.4056 2.93366 0.211174 -3.8039 1.99531 
0.0907347 -3.82071 3.58086 0.849774 -4.07198 1.85853 0.252128 -3.31175 1.44922 
0.000464454 -3.09281 2.42685 0.0140894 -3.34563 3.44561 0.291431 -4.19959 2.34259 
1.33361 -2.37299 2.63769 1.25788 -1.43424 2.52695 0.285383 -4.27049 2.65956 
0.117321 -3.80587 3.31317 1.21456 -3.33689 2.07846 0.543602 -3.78792 1.57555 
0.0762959 -3.00258 1.48615 0.01259 -3.27411 3.46688 -0.0222515 -2.94667 2.58898 
0.157894 -3.79555 2.98078 0.270132 -3.89353 2.22706 1.2283 -1.44093 2.42709 
1.29118 -2.23148 2.56347 0.890638 -3.93158 1.73465 0.0172446 -3.23174 3.41965 
0.295799 -3.36483 1.27679 -0.014654 -2.75537 1.60603 -0.0298205 -2.84392 2.74646 
0.238127 -3.90102 2.56696 1.18657 -3.10349 2.03906 0.0357628 -3.22987 3.25102 
0.100504 -2.95179 1.10001 0.591207 -3.88393 1.50373 -0.0290756 -2.78015 2.89993 
-0.055954 -2.56736 1.75913 0.0948467 -3.33121 2.8873 1.20295 -1.48867 2.34053 
1.24572 -2.18594 2.43892 0.203961 -3.54684 2.41368 -0.0237164 -2.74693 3.01967 
-0.0224353 -2.6026 1.06813 0.320554 -3.52117 1.20749 0.994195 -3.54518 1.68357 
-0.0695425 -2.43029 1.93034 -0.0111844 -2.76437 3.05934 0.0986237 -3.01427 0.925003 
0.693146 -3.80277 1.40663 -0.0831683 -2.33516 1.10436 1.18699 -2.49543 2.1813 
-0.0662576 -2.34829 2.156 0.00990071 -2.78136 2.92358 0.0800004 -2.98662 2.61774 
1.17881 -1.59733 2.26221 0.32734 -3.58064 1.09999 -0.0353604 -2.58444 0.76369 
-0.0534883 -2.31573 2.4201 -0.1072 -2.12527 1.19329 1.07698 -2.92768 1.80772 
-0.0379846 -2.31874 2.63026 0.0944553 -3.11111 0.803026 0.707565 -3.63375 1.28104 
1.14996 -1.76384 2.17301 -0.108345 -2.23564 0.679545 -0.0137823 -2.39645 2.68224 
-0.103788 -1.98899 1.4177 -0.0485661 -2.63902 0.582876 0.367714 -3.57182 0.96999 
1.00522 -2.88606 1.63955 -0.078462 -1.94185 1.82402 -0.141368 -1.93888 0.653286 
1.10542 -1.99265 2.0269 -0.0515421 -1.95159 2.18039 0.111256 -3.19011 0.680432 
0.759823 -3.31065 1.19015 -0.127885 -2.23945 0.421048 -0.128901 -1.72375 0.965052 
-0.0508907 -2.70848 0.446925 1.00762 -2.36302 1.69887 0.455233 -3.41979 0.83327 
-0.102341 -1.58826 1.24401 -0.163391 -1.72635 0.433735 -0.164659 -1.97112 0.264679 
0.165072 -3.1935 0.536878 -0.130119 -2.31977 0.243232 0.819885 -2.79725 1.19919 
-0.158237 -1.46984 0.468264 -0.0261589 -2.76555 0.310409 0.497015 -3.09389 0.661637 
-0.183696 -1.65816 0.134208 0.137179 -2.94322 0.265897 -0.16633 -1.99377 0.0725678 
-0.0898017 -2.43692 0.0928469 
