# vtk DataFile Version 3.0
vtk output
ASCII
DATASET POLYDATA
POINTS 724 float
10.7562 -11.2647 11.5714 11.1122 -12.0825 11.5649 10.3979 -10.4443 11.7169 
11.4216 -12.8198 11.6427 10.1424 -9.7977 11.9624 10.5951 -10.9004 11.8964 
11.7225 -13.4747 11.7058 9.97065 -9.25608 12.3087 10.9028 -11.606 11.8874 
10.3483 -10.3113 12.1202 11.1916 -12.2795 11.9549 11.4682 -12.9125 12.0158 
12.0047 -14.0083 11.7244 10.1598 -9.78737 12.3949 9.88556 -8.79514 12.7451 
10.6377 -11.0146 12.22 11.7079 -13.4041 12.1379 10.9523 -11.7576 12.2633 
10.0421 -9.3243 12.7681 10.3895 -10.3888 12.5039 12.2798 -14.4662 11.7347 
9.88758 -8.3736 13.258 11.284 -12.5329 12.3658 12 -13.9121 12.1704 
9.98789 -8.86261 13.2031 10.2242 -9.84354 12.8726 10.6558 -11.0578 12.5971 
11.5911 -13.19 12.5471 12.5376 -14.8486 11.7738 10.9473 -11.7659 12.6572 
9.94759 -8.04897 13.7333 10.134 -9.30935 13.3299 10.4419 -10.4344 12.9711 
12.2968 -14.3569 12.1904 10.0624 -8.65514 13.7135 11.2357 -12.4404 12.8031 
11.9385 -13.7902 12.6379 10.6857 -11.0696 13.0582 10.3167 -9.85553 13.4341 
10.0487 -7.72927 14.2913 12.7809 -15.1655 11.8715 12.5904 -14.7493 12.2102 
11.5415 -13.0799 13.0104 10.1068 -8.24417 14.1686 10.9438 -11.7097 13.1463 
10.2384 -9.20906 13.8834 10.5286 -10.4527 13.5411 12.3282 -14.3397 12.6476 
11.2194 -12.3399 13.3134 10.2348 -8.67487 14.3026 10.4391 -9.8091 14.0487 
10.7582 -11.0649 13.639 11.9181 -13.7136 13.132 12.9757 -15.3803 12.0208 
10.1925 -7.85122 14.7103 10.1716 -7.36221 14.9515 12.7589 -14.8927 12.4785 
11.0021 -11.6672 13.7451 11.5326 -12.9692 13.5317 10.4033 -9.17136 14.4914 
10.6591 -10.4353 14.1958 12.3853 -14.3488 13.0781 10.2837 -8.1778 14.8024 
13.0185 -15.1776 12.5507 11.2693 -12.2555 13.9068 10.8902 -11.0499 14.311 
10.6015 -9.74552 14.6942 11.9362 -13.6348 13.6651 10.4021 -8.55708 14.9191 
10.3126 -7.53063 15.3249 10.286 -6.92677 15.6208 13.1791 -15.5537 12.2779 
12.7361 -14.7388 13.0822 11.1292 -11.626 14.4184 11.5774 -12.8549 14.0994 
10.8206 -10.3657 14.8691 10.561 -9.01789 15.0878 10.4062 -7.88377 15.3997 
12.3693 -14.1891 13.7365 13.0265 -15.0107 13.1682 10.4131 -6.41329 16.3136 
10.4219 -7.15191 15.9326 13.2487 -15.3228 12.9164 11.3821 -12.1689 14.5456 
11.0516 -10.9736 14.9924 10.753 -9.56522 15.2982 10.5268 -8.29428 15.4804 
11.9441 -13.4417 14.2889 13.3724 -15.6536 12.6594 12.7809 -14.6123 13.8074 
10.5149 -7.57907 15.9572 11.2843 -11.5266 15.0861 10.6892 -8.76086 15.6259 
10.9639 -10.1699 15.4894 11.6592 -12.6905 14.7069 12.3928 -14.0111 14.4278 
10.5275 -6.47922 16.6294 13.1734 -14.9963 13.7396 10.6462 -5.7371 17.2763 
10.6409 -8.01443 16.0126 13.4248 -15.3169 13.4958 10.8813 -9.29399 15.8372 
11.1865 -10.7648 15.6216 11.5172 -12.0208 15.1835 10.5593 -6.86599 16.5467 
11.9932 -13.2353 14.8862 13.5456 -15.678 13.1444 12.8958 -14.5488 14.445 
10.8085 -8.48016 16.1403 10.6301 -7.27269 16.5134 11.0796 -9.86779 16.0512 
11.4087 -11.2972 15.7132 11.7635 -12.4946 15.2944 12.4491 -13.8552 15.0236 
13.3037 -14.9404 14.3757 10.7193 -5.96254 17.4193 10.9204 -4.98188 18.3578 
10.7522 -7.70169 16.541 13.573 -15.2465 14.1858 10.9985 -8.98053 16.349 
11.281 -10.4277 16.208 11.6252 -11.7711 15.7876 10.6968 -6.44145 17.1878 
13.7033 -15.6544 13.6996 12.0575 -13.0132 15.4194 12.9518 -14.4112 15.0829 
10.9931 -5.05547 18.5684 10.9182 -8.14066 16.6586 10.742 -6.88519 17.0766 
11.1828 -9.50652 16.5822 11.4839 -10.9343 16.3108 11.8476 -12.2283 15.8549 
13.3561 -14.8018 15.0711 12.4434 -13.5832 15.5697 10.9075 -5.58567 18.1544 
13.7519 -15.3291 14.5639 11.2507 -3.88717 19.7712 10.855 -7.2884 17.0915 
11.1043 -8.60982 16.8576 11.3594 -10.0191 16.7691 11.6844 -11.397 16.3776 
12.888 -14.1139 15.7014 10.8536 -6.08016 17.8279 12.0967 -12.6978 15.9448 
13.6112 -15.01 15.1689 13.8769 -15.6077 14.4122 11.2429 -4.23648 19.6613 
11.0153 -7.71281 17.1913 11.2799 -9.09952 17.097 10.8849 -6.44803 17.7201 
11.5375 -10.49 16.8938 13.2515 -14.471 15.8206 11.8881 -11.8359 16.433 
12.4027 -13.1939 16.091 11.0736 -5.10552 18.89 13.8495 -15.2255 15.2964 
11.6651 -2.97864 21.1936 11.1985 -8.17014 17.3728 10.9768 -6.82244 17.7 
11.4403 -9.57769 17.306 13.5534 -14.7512 15.894 11.7172 -10.9224 16.9768 
12.1088 -12.2717 16.5085 12.7611 -13.6607 16.2896 11.0371 -5.54852 18.6247 
14.0132 -15.5639 15.084 11.3519 -4.05597 20.1061 11.7051 -3.15942 21.2812 
11.1216 -7.23306 17.7643 11.3707 -8.64764 17.6025 11.5993 -10.0172 17.4579 
11.0542 -5.93215 18.465 11.9038 -11.3348 17.0453 13.1305 -14.0718 16.463 
12.3633 -12.7121 16.6458 13.744 -14.8963 16.058 11.2695 -4.49002 19.7733 
13.9567 -15.1997 15.8794 12.126 -1.95612 22.6367 11.2955 -7.68603 17.9142 
11.5242 -9.11275 17.8178 11.126 -6.31773 18.3858 11.7631 -10.4202 17.5698 
12.1075 -11.7438 17.1313 12.6727 -13.1698 16.8509 13.4146 -14.3365 16.6308 
11.229 -4.91734 19.4935 14.1061 -15.4879 15.7847 11.6659 -3.41966 21.1918 
11.463 -8.16543 18.1183 11.2517 -6.7337 18.3964 11.6744 -9.54017 17.99 
11.9371 -10.8053 17.6685 12.1 -2.36656 22.516 11.2366 -5.34304 19.2758 
13.7086 -14.6643 16.6517 12.3436 -12.1761 17.26 13.0002 -13.5684 17.0846 
11.5416 -3.83774 20.7894 13.9462 -15.0005 16.5377 12.3425 -0.92424 23.5757 
11.4129 -7.19502 18.4995 11.6115 -8.63291 18.3208 11.295 -5.77512 19.1318 
11.8321 -9.93324 18.1305 12.1326 -11.1999 17.7766 12.6198 -12.6211 17.46 
11.4631 -4.26962 20.4185 13.3452 -13.9864 17.2176 11.9994 -2.82759 22.2257 
14.1289 -15.354 16.4109 11.5716 -7.68433 18.6661 11.4066 -6.23246 19.0776 
11.7565 -9.06424 18.4949 13.6499 -14.3775 17.2248 12.005 -10.3146 18.2604 
11.4421 -4.72604 20.1151 12.337 -1.51602 23.4171 12.3606 -11.6223 17.9186 
12.9529 -13.1232 17.6643 11.8568 -3.331 21.7616 13.9034 -14.7638 17.1206 
12.5075 -0.0724666 24.241 11.5558 -6.72212 19.1265 11.7123 -8.16245 18.84 
11.4792 -5.21954 19.8879 11.9121 -9.46693 18.6488 11.7505 -3.79525 21.3137 
12.2027 -10.7082 18.3997 13.2963 -13.6219 17.7796 12.6363 -12.1222 18.0867 
12.2617 -2.15459 23.091 14.1052 -15.1668 16.9838 11.577 -5.7325 19.7722 
11.7047 -7.23463 19.2486 11.6931 -4.27513 20.9104 11.8489 -8.60546 18.9958 
13.6021 -14.0802 17.7692 12.0892 -9.86343 18.8012 12.1437 -2.82455 22.6169 
12.4378 -11.1566 18.5529 12.4854 -0.785383 24.0549 12.9559 -12.6908 18.2462 
13.8558 -14.5096 17.6644 11.7032 -4.76839 20.6252 11.7153 -6.27101 19.7679 
12.0285 -3.46756 22.07 11.8352 -7.73196 19.3868 12.7536 0.664155 24.9296 
11.9994 -9.02365 19.1421 12.2992 -10.2881 18.9641 13.2828 -13.2646 18.3247 
12.4367 -1.54209 23.7232 12.7139 -11.6882 18.7083 14.0619 -14.9485 17.5207 
12.3378 -2.46053 23.1751 11.9746 -3.98553 21.6507 11.7755 -5.29796 20.4571 
11.8556 -6.82441 19.8454 13.5752 -13.7831 18.2956 11.9612 -8.18971 19.5133 
12.1776 -9.44711 19.296 12.5511 -10.7707 19.1416 13.016 -12.2994 18.8249 
12.6592 -0.227421 24.6048 13.8183 -14.2508 18.1875 12.5435 -1.37276 24.0187 
12.2802 -3.16459 22.7313 11.9706 -4.4744 21.3387 11.8918 -5.86969 20.4021 
11.9786 -7.35267 19.9506 12.1015 -8.62366 19.6348 13.3125 -12.9247 18.8614 
13.0377 1.38467 25.6543 12.3981 -9.90721 19.4741 12.8382 -11.3333 19.3061 
14.0191 -14.7189 18.0337 12.7259 -0.425363 24.7021 12.5196 -2.12197 23.668 
12.2557 -3.7558 22.3494 12.0124 -4.99167 21.1293 13.5777 -13.4924 18.8118 
12.0181 -6.4602 20.4381 12.0954 -7.83106 20.0485 12.2735 -9.0661 19.7722 
13.1277 -11.9663 19.4011 12.6706 -10.4308 19.6816 12.9684 0.714799 25.4395 
13.801 -13.9949 18.7004 12.5107 -2.83522 23.3318 12.7088 -1.11142 24.4365 
12.2541 -4.28459 22.0323 12.0934 -5.55975 21.0274 12.1342 -7.02036 20.5154 
12.2247 -8.27722 20.1423 13.3893 -12.6129 19.4019 12.4959 -9.55165 19.9496 
12.9785 -11.0312 19.879 13.3465 2.20207 26.4177 13.9887 -14.4916 18.5299 
12.9294 -0.00603529 25.215 12.5144 -3.51215 23.0063 12.7128 -1.79327 24.159 
12.2748 -4.804 21.7955 13.6174 -13.2112 19.3304 12.1946 -6.15692 21.0245 
12.2461 -7.52042 20.5933 12.3856 -8.72821 20.2541 13.2671 -11.683 19.9837 
12.7828 -10.1089 20.1806 13.2076 1.29973 26.0252 13.8116 -13.742 19.2158 
12.9093 -0.747474 24.9437 12.7272 -2.50695 23.8791 12.5257 -4.12191 22.7078 
12.3209 -5.35189 21.657 12.3003 -6.72917 21.0788 12.3681 -7.97787 20.6668 
13.5019 -12.3312 19.9648 12.6004 -9.22317 20.4153 13.1111 -10.7446 20.424 
13.9771 -14.2729 19.0134 13.6071 3.00542 27.0258 13.1332 0.433329 25.7089 
12.9184 -1.46235 24.6733 12.7482 -3.24541 23.6061 13.6934 -12.9375 19.8703 
12.5414 -4.67691 22.4652 12.3917 -5.92443 21.6208 12.4098 -7.24176 21.1452 
12.5182 -8.431 20.7548 13.4056 -11.4179 20.5716 12.8883 -9.79456 20.6502 
13.4281 1.90654 26.5592 13.8543 -13.485 19.7517 13.1133 -0.384024 25.4421 
12.9402 -2.19673 24.4054 12.7726 -3.94242 23.3501 12.567 -5.2157 22.3075 
12.483 -6.47965 21.6553 12.5292 -7.70668 21.2076 13.625 -12.0647 20.5615 
12.7194 -8.92208 20.8896 13.2258 -10.4481 20.9296 13.9866 -14.063 19.4847 
13.803 3.81673 27.4372 13.3167 0.919283 26.1553 13.129 -1.15187 25.1915 
12.9653 -2.97155 24.1561 12.7958 -4.5573 23.1306 13.789 -12.6634 20.4511 
12.6145 -5.75383 22.2496 12.59 -6.98483 21.7131 12.6712 -8.15903 21.2776 
13.524 -11.1371 21.1345 12.9931 -9.48597 21.1044 14.0131 -13.8558 19.9399 
13.322 -10.1346 21.3878 12.8559 -8.63863 21.3836 12.709 -7.44634 21.7695 
12.6922 -6.27227 22.2679 13.2948 0.00780625 25.886 13.1547 -1.91693 24.9312 
12.8198 -5.10758 22.9799 12.9951 -3.73481 23.9386 13.6332 2.52996 27.0522 
13.7343 -11.7828 21.1709 13.9218 -13.211 20.3292 13.1039 -9.18143 21.5592 
13.6165 -10.8254 21.6345 12.8453 -7.89259 21.8261 12.7953 -6.74988 22.3168 
12.8604 -5.62067 22.919 13.8794 -12.3605 21.0807 13.0278 -4.41067 23.7598 
13.1768 -2.71219 24.6804 13.3252 -0.82988 25.6768 13.4843 1.43744 26.5691 
13.9386 4.59331 27.7099 14.05 -13.6208 20.4204 13.4058 -9.80726 21.81 
13.013 -8.35815 21.9037 13.8211 -11.4678 21.7396 12.9138 -7.19206 22.3654 
12.9326 -6.10073 22.9309 13.0639 -4.98574 23.6414 13.2003 -3.50939 24.4751 
13.3638 -1.6395 25.4509 13.4457 0.435164 26.263 13.9891 -12.8701 20.9785 
13.8165 3.21196 27.4877 13.2284 -8.87654 22.0314 13.6858 -10.4832 22.0635 
13.045 -7.62231 22.4088 13.034 -6.54169 22.9738 13.1146 -5.49034 23.6009 
[...]
POINT_DATA 724
VECTORS velocity double
0.100449 -0.0116983 -0.382462 0.136454 -0.0315993 -0.368823 -0.0259114 0.0906581 -0.334857 
0.0670212 0.0236549 -0.27646 -0.124069 0.162616 -0.314756 0.0146292 0.00133372 -0.355935 
-0.0106385 0.0558839 -0.184395 -0.173906 0.174914 -0.336012 0.081866 -0.0781006 -0.375221 
-0.0807778 0.081594 -0.318592 0.0659211 -0.0733561 -0.331594 -0.00656393 -0.00648315 -0.243044 
-0.0240031 0.00109307 -0.16075 -0.1437 0.130265 -0.30781 -0.183829 0.139772 -0.380764 
-0.00280391 -0.053992 -0.326912 -0.0770082 0.0281391 -0.168234 0.045677 -0.137534 -0.322962 
-0.16521 0.12451 -0.323855 -0.0883724 0.0281114 -0.275973 0.0194975 -0.118157 -0.201646 
-0.172434 0.0847691 -0.42463 -0.000325027 -0.0988967 -0.242479 -0.0975421 0.000874052 -0.144294 
-0.155662 0.0804691 -0.361979 -0.131657 0.0658783 -0.252202 -0.0169753 -0.110147 -0.255494 
-0.0924271 -0.0103523 -0.123114 0.0884248 -0.247797 -0.278103 0.0254146 -0.195396 -0.233135 
-0.16129 0.0496036 -0.440079 -0.127369 0.0433714 -0.269126 -0.0778066 -0.0418231 -0.180412 
-0.0572381 -0.102431 -0.183019 -0.118524 0.0119547 -0.353642 -0.00489489 -0.167196 -0.144543 
-0.140937 0.0224486 -0.0698406 -0.0120248 -0.176833 -0.131205 -0.0918386 -0.0191862 -0.147062 
-0.155915 0.0433897 -0.421138 0.157367 -0.353212 -0.361027 0.0241585 -0.234538 -0.261559 
-0.0790546 -0.0542501 -0.0137313 -0.103649 -0.0200095 -0.372222 0.032606 -0.265118 -0.0870992 
-0.0755719 -0.0386085 -0.20772 -0.040896 -0.125221 -0.0354903 -0.098357 -0.0732579 -0.118743 
0.02882 -0.247566 0.0062859 -0.0556321 -0.0742238 -0.270574 -0.0390108 -0.0982541 -0.0400068 
0.0227254 -0.254721 0.0376577 -0.138884 0.0425331 0.0543014 0.204639 -0.411396 -0.417824 
-0.101308 -0.0143604 -0.351573 -0.166928 0.0964301 -0.367754 0.0457534 -0.272946 -0.273117 
0.0775101 -0.344812 0.0924574 -0.0210495 -0.114756 0.132041 -0.0190241 -0.116341 -0.129066 
0.00624454 -0.191163 0.0907978 -0.104594 -0.0317516 -0.0243442 -0.0492923 -0.0827183 -0.290063 
0.131163 -0.354106 -0.338757 0.0986569 -0.333444 0.166756 0.0716856 -0.313922 0.160647 
-0.000415628 -0.143371 0.0116906 -0.0924931 0.0511439 0.198063 -0.00706256 -0.136719 -0.207021 
-0.103786 0.0280094 -0.29735 -0.201718 0.221588 -0.317425 0.240354 -0.436854 -0.446869 
-0.0130002 -0.153625 -0.115211 0.138749 -0.406664 0.198076 0.0683653 -0.194212 0.251389 
0.024779 -0.194828 0.0999233 0.0141742 -0.160165 -0.107815 -0.0393099 -0.072829 -0.244656 
-0.0918512 0.0657498 0.164653 0.0759038 -0.233013 -0.169942 -0.230738 0.35364 -0.279841 
-0.130114 0.129752 -0.260251 0.174382 -0.346101 -0.306503 0.175289 -0.406444 0.232119 
0.0860299 -0.300927 0.133426 0.00552595 -0.141438 -0.0291719 0.00920693 -0.150237 -0.183231 
0.00293129 -0.00268255 0.301065 0.260383 -0.415551 -0.415946 -0.0156013 -0.0246473 0.0874968 
-0.051987 -0.0138217 -0.214492 0.162057 -0.405177 0.144512 0.0247284 -0.174489 -0.123089 
-0.00222089 -0.130397 -0.00139973 0.161395 -0.296809 0.263638 -0.0369789 0.0938352 0.275602 
-0.185369 0.30526 -0.244053 0.0975567 -0.155439 -0.0306194 -0.193924 0.356448 -0.192813 
0.00301305 -0.119933 -0.169807 0.191279 -0.264508 -0.165288 -0.00362738 -0.126148 -0.0963235 
0.0380932 -0.197924 -0.00286995 0.210774 -0.4371 0.151538 -0.13252 0.195847 -0.226431 
0.0945348 -0.109788 0.275071 0.273338 -0.352276 -0.313625 0.017043 0.0188119 0.180326 
0.0184745 -0.158637 -0.138828 -0.0712698 0.0668756 -0.197759 -0.0447651 -0.0536766 -0.11422 
0.111968 -0.308527 -0.00564821 0.210161 -0.374542 0.157722 0.0125919 0.0463289 0.244813 
0.123678 -0.103761 0.0820816 -0.152827 0.302294 -0.173943 -0.140863 0.289337 -0.0644855 
-0.0196915 -0.0488184 -0.167716 0.212959 -0.191286 -0.00951793 -0.0163188 -0.106777 -0.144343 
-0.0431479 -0.052222 -0.138309 0.174486 -0.385231 -0.0020772 -0.129494 0.248876 -0.190895 
0.29294 -0.279949 -0.172441 0.149796 -0.219451 0.159359 0.0324921 0.0110679 0.175525 
-0.111159 0.265606 -0.0406545 -0.00206037 -0.104711 -0.153183 -0.0886068 0.152106 -0.184142 
-0.074971 -0.00329454 -0.181767 0.00617286 -0.129543 -0.143449 0.198253 -0.38775 0.00775655 
0.125645 -0.0995524 0.114282 0.0552694 -0.0502858 0.1388 -0.100476 0.240212 -0.0855968 
0.265682 -0.210203 0.0182935 -0.129903 0.432862 0.0627054 -0.0486968 0.0528151 -0.168607 
-0.0306078 -0.0733673 -0.168571 -0.106747 0.060045 -0.210158 0.0708676 -0.227407 -0.132034 
0.0236971 -0.0188108 0.100769 -0.0936244 0.223232 -0.126532 0.167885 -0.302153 0.0158361 
0.199917 -0.177319 0.0770419 0.330645 -0.246701 -0.0355646 -0.102612 0.383944 0.0474645 
-0.028911 -0.0159567 -0.16213 -0.0878851 0.0235448 -0.203022 -0.0756536 0.180981 -0.138659 
-0.0941183 0.0461034 -0.208985 0.0713483 -0.0940417 0.0678814 0.11861 -0.290327 -0.113603 
0.0903322 -0.160704 0.0134147 -0.0743958 0.24314 -0.00872203 0.278602 -0.250655 0.0480414 
-0.0840249 0.465816 0.255812 -0.0455253 -0.0168277 -0.176565 -0.0541356 0.121431 -0.142041 
-0.132297 0.109403 -0.220684 0.147213 -0.184236 0.0499722 -0.0531745 -0.0168298 -0.18655 
0.126981 -0.284056 -0.0943584 0.0226829 -0.0661936 0.00523773 -0.0548923 0.196298 -0.0331035 
0.365852 -0.290289 0.0177384 -0.0845165 0.420601 0.0797339 -0.0593498 0.453219 0.229708 
-0.0411122 0.065452 -0.147713 -0.0904418 0.0473624 -0.201669 -0.143588 0.139447 -0.206471 
-0.0394871 0.162185 -0.0531037 -0.00658953 -0.0868281 -0.154632 0.0198818 -0.0724126 0.0122535 
0.0874203 -0.202412 -0.0754091 0.198036 -0.245394 0.038927 -0.065828 0.346329 0.0519274 
0.292529 -0.31052 0.0363847 0.01438 0.315502 0.416381 -0.0519347 0.0471469 -0.166212 
-0.131496 0.119006 -0.207323 -0.0267081 0.12652 -0.0706594 -0.12829 0.123085 -0.169632 
0.0243503 -0.125005 -0.118775 0.0221643 -0.0871685 -0.0451055 0.0585516 -0.124174 0.0279508 
-0.0420686 0.264624 0.0374356 0.376646 -0.36055 0.029489 -0.0479554 0.447501 0.185295 
-0.0859741 0.0774863 -0.191045 -0.021593 0.0923682 -0.0909369 -0.148897 0.155046 -0.181021 
-0.0995373 0.0859568 -0.121214 0.0326681 0.347011 0.358146 -0.0168192 0.190437 0.0268917 
0.138756 -0.211213 0.0452197 0.0243219 -0.10341 -0.0773679 -0.012787 -0.0220343 0.00586076 
-0.049563 0.436466 0.122774 0.237855 -0.301322 0.0485255 -0.0930806 0.221395 0.155473 
-0.0349004 0.0786619 -0.122861 -0.120126 0.120011 -0.196435 0.00393431 0.130903 0.012985 
-0.143992 0.155041 -0.131441 -0.0696166 0.0538792 -0.0677418 -0.00777139 -0.0189079 -0.0221015 
-0.0389579 0.384756 0.0845228 0.0107598 -0.0438566 0.0652896 0.0290383 0.368023 0.29161 
0.344022 -0.380593 0.0469821 -0.0678439 0.0957637 -0.162454 0.0125319 0.0894242 -0.0114182 
-0.136554 0.13939 -0.16947 0.0784963 -0.126676 0.100063 -0.124687 0.135299 -0.070285 
-0.0170853 0.29974 0.0671106 0.000247721 0.273889 0.235487 -0.0518722 0.0557695 -0.0137861 
-0.0351626 0.0614276 0.0549922 0.00641544 0.389337 0.206913 0.171508 -0.232026 0.104166 
-0.256277 0.290725 -0.267488 -0.000821466 0.0751015 -0.0544891 -0.102123 0.119142 -0.185031 
0.0103524 0.201845 0.0590298 -0.133501 0.130671 -0.116893 -0.00769031 0.391169 0.136511 
-0.0996159 0.11646 -0.00884022 -0.0167597 0.0539459 0.136702 -0.0520329 0.104895 0.0383383 
0.0626977 0.312587 0.287337 0.282349 -0.337502 0.0961684 0.0295399 0.121714 0.043518 
-0.0372688 0.0894214 -0.113793 -0.0059731 0.352821 0.0911503 -0.121039 0.122049 -0.17413 
0.0408646 -0.0286677 0.187269 -0.115702 0.104933 -0.0516794 0.0711517 0.321747 0.262787 
-0.0783939 0.123904 0.0387081 -0.131784 0.264665 -0.0666666 -0.0549689 0.161043 0.101921 
0.119618 -0.13898 0.195883 0.00925629 0.274864 0.0694803 0.0237446 0.0802101 0.00256545 
0.0462989 0.319354 0.179607 -0.0785351 0.107653 -0.162752 -0.298194 0.457973 -0.475737 
-0.121198 0.0996413 -0.133156 -0.0902892 0.0830021 0.00894331 -0.0286321 0.142481 0.188463 
0.00630813 0.283581 0.130765 -0.0689363 0.173858 0.0627025 0.218496 -0.256933 0.179672 
0.0937299 0.293742 0.237888 0.0286057 0.30485 0.11121 0.0253586 0.183474 0.0536708 
-0.0123186 0.0793785 -0.0661428 0.0254434 0.0539411 0.262463 -0.105784 0.104912 -0.178767 
-0.105114 0.0608044 -0.074163 -0.0679909 0.0963686 0.0393814 -0.0605607 0.224131 0.0935913 
-0.221213 0.32681 -0.311526 0.0917518 -0.0565951 0.292007 -0.0199077 0.28127 0.0324287 
0.0971993 0.252497 0.203252 0.0220167 0.265792 0.0678496 0.0232582 0.11483 0.0201761 
-0.0599005 0.0909925 -0.134808 -0.113794 0.0768387 -0.160807 -0.0285208 0.197655 0.177905 
-0.20627 0.552129 -0.297309 -0.0784774 0.0279011 -0.0188537 -0.0577576 0.162263 0.0277334 
0.172497 -0.174503 0.280283 -0.176613 0.316325 -0.260237 0.0844637 0.279076 0.161095 
0.0765578 0.210243 0.13487 0.0194251 0.204906 0.0382177 0.0255312 0.102504 0.283808 
-0.00922535 0.0889009 -0.0427872 -0.0961358 0.0864362 -0.174913 -0.103341 0.0314607 -0.1183 
-0.0490351 0.226271 0.0262271 -0.0528025 0.0408759 -0.0027229 -0.210713 0.464945 -0.339918 
0.0851384 -0.00799186 0.353341 0.124812 0.220498 0.193417 -0.0578047 0.281218 -0.0772649 
0.0506876 0.181059 0.0733409 0.00726283 0.144884 0.00456107 -0.0580526 0.0851212 -0.114236 
-0.113076 0.059531 -0.181047 -0.0186004 0.20687 0.104368 -0.0778736 -0.00806027 -0.0718501 
-0.0390867 0.11839 -0.0389333 -0.0791394 0.477699 0.0459351 0.150242 -0.118659 0.368175 
-0.169649 0.356959 -0.265065 0.119353 0.128982 0.165263 0.0535846 0.267105 0.0688638 
0.0243201 0.154736 0.0261576 0.0339908 0.111608 0.238087 -0.0262813 0.109905 -0.0469142 
-0.0989713 0.0741087 -0.164936 -0.110182 0.0173215 -0.159467 -0.0291932 0.189458 -0.0595443 
-0.0472484 0.00520151 -0.0595263 -0.116225 0.4776 -0.130208 0.0913452 -0.000410568 0.354698 
-0.0820808 0.28333 -0.117737 0.123236 0.213606 0.154848 0.0868897 0.0683523 0.108954 
-0.00673303 0.129361 -0.0146845 -0.0734968 0.0932505 -0.106523 -0.121564 0.0481352 -0.186372 
-0.00319683 0.176399 0.00746161 -0.0882356 -0.018021 -0.125237 -0.0243724 0.089855 -0.0946249 
0.146726 -0.102079 0.416954 -0.0181642 0.373597 0.225983 -0.111663 0.379514 -0.143552 
0.023989 0.251357 0.0301446 0.140243 0.0944786 0.185758 0.0440067 0.0875732 0.147499 
0.0423661 0.0513911 0.0500567 -0.0481221 0.11197 -0.0586184 -0.114338 0.0740023 -0.152888 
-0.124153 0.0135451 -0.181956 -0.00867304 0.153705 -0.108223 -0.052561 0.00170423 -0.108688 
-0.0378033 0.411408 0.0593888 0.0999072 -0.0262416 0.296284 -0.0545631 0.278674 -0.027828 
0.10595 0.210346 0.13491 0.115645 -0.0194478 0.170025 -0.00664617 0.057551 -0.00138737 
-0.0945977 0.0990199 -0.103329 -0.13809 0.04698 -0.177725 0.0127122 0.131163 -0.051408 
-0.105397 -0.00978716 -0.160423 -0.0158647 0.0927864 -0.119012 0.151931 -0.120208 0.41682 
-0.0315502 0.391566 0.190307 -0.0490922 0.379853 -0.0129397 0.0291127 0.225437 0.109921 
0.13749 0.102387 0.196916 0.0671056 -0.0628952 0.122319 0.0499535 0.0466403 0.0650258 
-0.0573122 0.0696925 -0.0458058 -0.132538 0.0804061 -0.138574 -0.142264 0.019357 -0.18251 
0.0101165 0.145186 -0.0974483 -0.0654357 0.0200495 -0.139495 0.154966 -0.155146 0.377147 
-0.0141856 0.114013 -0.12186 -0.124416 0.00834938 -0.171421 -0.153985 0.0563974 -0.160113 
-0.103679 0.0770835 -0.0838107 -0.00515087 0.271852 0.0960686 0.0979846 0.196218 0.194942 
0.0105057 -0.0501199 0.0658281 0.123216 -0.0433777 0.222224 0.00886872 0.321666 0.171308 
0.0276029 0.102222 -0.0315596 0.100256 -0.0665971 0.209125 -0.0813936 0.0447759 -0.15161 
0.0251683 0.159751 -0.0617872 -0.156775 0.0355929 -0.168879 -0.137353 0.0750371 -0.114216 
-0.0434631 -0.0170861 0.0142887 0.0505896 0.0137769 0.0506334 0.0825237 -0.130258 0.203768 
0.124047 0.12722 0.231391 0.0663004 0.19566 0.260803 -0.00125984 0.34575 0.0804591 
-0.105273 0.457703 -0.0392958 0.147607 -0.189693 0.313405 -0.0195418 0.132976 -0.120078 
-0.138358 0.0324987 -0.166467 0.0428626 0.101621 0.0355324 -0.154649 0.0666128 -0.13717 
-0.0869436 0.0151361 -0.0305092 0.0321832 -0.138968 0.154986 0.109558 -0.00353982 0.250602 
0.115113 0.171024 0.341045 0.034052 0.266003 0.168527 0.0849848 -0.0916886 0.148564 
0.0164424 0.304277 0.183195 -0.094691 0.0674301 -0.153777 0.0330213 0.176611 -0.0419086 
-0.155187 0.0590387 -0.153178 -0.11491 0.0406286 -0.0708966 -0.0149259 -0.105807 0.0962717 
0.0765086 -0.114771 0.243706 0.053584 0.00484489 0.118573 0.117662 0.149868 0.318101 
0.106456 0.17336 0.375287 0.0323831 0.278134 0.140541 -0.216625 0.499182 -0.397969 
0.124441 -0.20844 0.252631 -0.029369 0.14016 -0.123539 -0.137323 0.062536 -0.161704 
0.0564074 0.116655 0.0821001 -0.127439 0.0606045 -0.108154 -0.0499303 -0.0592995 0.0359279 
0.0385498 -0.152456 0.200529 0.0875289 0.0727708 0.274014 0.149106 0.144178 0.494654 
0.0564929 0.252267 0.184744 0.0697925 -0.0975748 0.184265 -0.0219441 0.376504 0.0625673 
-0.0975361 0.0895666 -0.159904 0.0321659 0.180632 -0.0480636 -0.126374 0.0774016 -0.141012 
-0.0696447 -0.0108864 -0.0243315 0.00447781 -0.134194 0.133929 0.0624889 0.0137686 0.195774 
0.0523087 -0.0285002 0.23754 0.129945 0.159485 0.407529 0.130086 0.158802 0.445111 
0.0465155 0.229129 0.160184 0.0933433 -0.203284 0.250612 -0.302835 0.487332 -0.722488 
-0.0372489 0.13943 -0.13793 -0.111644 0.0942952 -0.16628 0.0643673 0.129026 0.0821036 
-0.076188 0.0355618 -0.081846 -0.018484 -0.0889472 0.056355 0.0229544 -0.0823058 0.181993 
0.0737438 0.148849 0.317214 0.0691014 0.21658 0.173623 0.178862 0.123095 0.575608 
0.0659843 -0.0884036 0.272918 -0.119837 0.449267 -0.231774 -0.0809309 0.115854 -0.178067 
0.0253928 0.169391 -0.0737168 -0.0728217 0.0774951 -0.132712 -0.0279315 -0.0344084 -0.0217598 
0.000711836 -0.0801094 0.101053 0.0722794 0.0270808 0.222349 0.0232412 0.0903348 0.214556 
0.155287 0.153858 0.548733 0.128453 0.152906 0.346069 0.0302594 0.275714 0.111107 
0.0727321 -0.183139 0.322669 -0.0339231 0.141421 -0.165297 -0.061116 0.112473 -0.172677 
-0.253473 0.40089 -0.68206 0.0651739 0.129106 0.0461188 -0.0261022 0.0196347 -0.0894368 
-0.0110689 -0.0455067 0.00625145 -0.007035 0.0425173 0.125442 0.0780044 0.197974 0.376853 
0.19124 0.106356 0.565412 0.0689955 0.169201 0.144731 0.0710879 -0.0747895 0.331496 
-0.136293 0.437908 -0.319438 0.0195209 0.151097 -0.111771 -0.0407263 0.137554 -0.195362 
-0.0167619 0.0675593 -0.139188 -0.0102918 -0.00119013 -0.0830438 0.0783863 0.035773 0.194224 
-0.0228203 0.0356147 0.0245509 0.00439465 0.199727 0.202145 0.177415 0.142921 0.582144 
0.111703 0.137574 0.237474 0.068522 -0.16195 0.401333 -0.0111283 0.148004 -0.190482 
0.0322959 0.274549 0.0672726 0.0603262 0.114751 -0.00783344 -0.00311857 0.105438 -0.168516 
0.00149378 0.0378002 -0.144659 -0.129487 0.343165 -0.382513 -0.025946 0.0542073 -0.0821351 
0.185077 0.0879588 0.484935 -0.0366927 0.180169 0.0662492 0.0946534 0.216207 0.410844 
0.0775138 -0.063785 0.326802 0.0241619 0.135479 -0.146368 -0.188916 0.389002 -0.485076 
0.0126128 0.129046 -0.177531 0.0957939 0.106078 0.151113 0.0199816 0.0641246 -0.164551 
0.0785668 0.0337763 0.13155 -0.0152677 0.0727446 -0.169128 0.187789 0.127696 0.551716 
-0.0519504 0.171876 -0.0533699 0.00519235 0.266172 0.198183 0.0719156 -0.14664 0.422641 
-0.0122997 0.363899 -0.0641184 0.0290511 0.132425 -0.1651 0.0553639 0.0912261 -0.0586538 
0.0399961 0.0761453 -0.144253 0.167006 0.0635055 0.367585 0.00692089 0.0745357 -0.206334 
0.110017 0.215805 0.387573 -0.0481633 0.16646 -0.155131 -0.0474703 0.278066 0.0287388 
-0.0337671 0.383378 -0.138478 0.0800673 -0.0589948 0.267772 0.0811653 0.113647 0.0984673 
0.0448727 0.109364 -0.127384 0.0569964 0.0748436 -0.0980497 -0.147979 0.294792 -0.39515 
0.186566 0.103196 0.482207 0.0336974 0.0574705 -0.179474 0.0729518 0.0179791 0.0622848 
-0.0278217 0.143035 -0.216219 0.0212535 0.281557 0.169857 -0.0639371 0.265561 -0.0930419 
0.0740711 -0.137261 0.374111 -0.0611545 0.379795 -0.198841 0.0578448 0.0588369 -0.0614496 
0.1447 0.0304229 0.241288 0.0678772 0.0608734 -0.0433751 0.0577228 0.0277014 -0.099494 
0.00220214 0.0967233 -0.218884 0.118406 0.20135 0.321877 -0.0547234 0.227422 -0.166553 
-0.0317415 0.298041 0.00104546 0.0255852 0.481379 0.00361234 0.0752843 -0.0655262 0.182875 
0.0537093 0.218083 0.0355945 0.0712402 0.0332561 0.00816803 0.0743086 -0.00788955 0.00629805 
0.0650368 -0.0111391 0.0299537 0.176201 0.0592409 0.385542 -0.073458 0.231713 -0.203938 
0.0316305 0.0391028 -0.165279 -0.0293104 0.163362 -0.187501 0.0397812 0.263639 0.105264 
-0.0470747 0.268271 -0.0979376 -0.0814965 0.314144 -0.241267 0.0687385 -0.135289 0.27717 
0.114705 0.013155 0.113901 0.0675495 -0.00831466 0.0535617 0.0814505 -0.0444485 0.109396 
0.0533901 -0.0190106 -0.0687654 0.00112825 0.0873383 -0.166215 0.124806 0.156666 0.259811 
-0.0372371 0.203937 -0.132204 -0.00892968 0.267133 -0.0513236 0.0642237 0.579277 0.0850707 
0.0614435 -0.0882979 0.124722 0.0211591 0.329116 -0.0426839 0.0592106 -0.059965 0.0960023 
0.0652473 -0.073525 0.0515689 0.0786949 -0.0800644 0.190514 0.0271161 0.0163195 -0.119483 
0.152165 -0.0122402 0.234423 -0.0148312 0.121138 -0.117929 -0.0241205 0.220438 -0.120813 
0.0536906 0.223879 0.0481002 -0.0154275 0.25543 -0.0553401 -0.0538209 0.216734 -0.153539 
0.0503577 -0.146443 0.19278 0.0659366 0.17089 0.0192059 0.0678194 -0.122252 0.172464 
0.0439143 -0.04421 -0.0522773 0.00998358 0.0392933 -0.0790218 0.0663482 -0.113182 0.236813 
-0.0174704 0.142815 -0.119832 0.130574 0.0672742 0.222961 0.00652085 0.226469 -0.0999742 
0.0891002 0.649359 0.131691 0.0472264 -0.126424 0.193159 -0.0164613 0.267981 -0.0874416 
0.0506467 -0.0989878 0.0400366 0.0300575 -0.0251279 -0.0392629 0.0626278 -0.162357 0.273735 
0.000521303 0.051295 -0.0733557 0.107098 -0.0157751 0.0619718 -0.0112498 0.178197 -0.152599 
0.0714217 0.148485 0.0683673 0.000748066 0.23423 -0.00700475 0.0285587 -0.175195 0.231242 
0.051604 -0.185627 0.334652 0.0416692 -0.0680248 -0.00761778 0.0400061 0.315172 -0.00600826 
0.0487839 -0.152113 0.154466 0.0218732 -0.0375693 -0.00684992 -0.0080272 0.0987029 -0.131131 
0.0255338 0.171061 -0.0565998 0.122355 -0.0346017 0.130859 0.102128 0.683445 0.154633 
0.036661 -0.194966 0.335871 0.00244566 0.143636 0.00157488 0.0440568 -0.102132 0.0316192 
0.041385 -0.200137 0.276692 0.0395962 -0.103641 0.0516857 0.00749967 0.00153515 -0.0628383 
0.00619087 0.139972 -0.0974601 0.063133 0.209266 0.0052751 0.0909542 0.0466975 0.11462 
0.0293448 0.329262 0.0557735 0.0381362 -0.144512 0.105307 0.0485159 -0.13164 0.0793621 
0.0171062 -0.22458 0.362505 0.0375845 0.186572 0.0642526 0.0287148 -0.101095 0.0293562 
0.00577504 0.0746916 -0.0768438 0.0529033 0.108817 0.0626669 0.0279664 -0.231215 0.356431 
0.0829187 0.0116822 0.00558092 0.109103 0.696116 0.167481 0.0253004 0.234207 0.0615974 
0.0271363 -0.191906 0.205369 0.0475075 -0.129423 0.077379 0.048733 -0.1892 0.119164 
0.0171406 -0.014119 -0.0166264 0.0342802 0.117294 0.0510179 0.0725131 0.282292 0.0855901 
0.0861555 -0.0228946 0.0494949 0.0391271 -0.129974 0.080794 0.00821494 -0.248016 0.375075 
0.060333 -0.234912 0.175583 0.0498231 0.0939693 0.130047 0.0354384 -0.119186 0.0690888 
0.0319387 0.0814886 0.0734758 0.0642716 0.0477378 0.0868092 0.0135432 -0.220079 0.266119 
0.0680594 0.224309 0.0271391 0.111224 0.693775 0.173072 0.0264265 -0.149917 0.115475 
0.0443064 0.34035 0.0966859 0.0600571 -0.225038 0.181068 0.0556849 -0.227581 0.164299 
0.0494814 0.105905 0.132861 0.0594868 0.0552496 -0.0201937 0.0389562 0.0135924 0.115289 
0.0957277 0.144074 0.214798 0.0509513 -0.183935 0.151727 0.000703327 -0.220046 0.260539 
0.0711604 -0.311855 0.244351 0.103692 0.261207 0.166603 0.051061 0.0304518 0.0156814 
0.0497528 0.118881 0.19319 0.0511709 -0.0814855 0.168413 0.0154602 -0.158217 0.135727 
0.0411705 0.196623 0.111039 0.110261 0.680173 0.175511 0.0377527 -0.148644 0.121057 
0.0751495 -0.337855 0.27986 0.108221 0.0638586 0.274796 0.0619775 0.193337 0.028171 
0.0402516 0.0850754 0.0831437 0.0658732 -0.196982 0.229164 0.0581442 0.090402 0.253199 
0.0659385 -0.293988 0.25767 0.0116139 -0.142111 0.121447 0.106823 0.658634 0.175353 
0.0482934 0.232546 0.127356 0.145219 0.194161 0.312932 0.0796347 -0.311967 0.292414 
0.035751 0.108125 -0.0216431 0.0411998 0.134143 0.174241 0.0690025 0.0202034 0.29986 
0.0396217 -0.16978 0.153833 0.120206 0.0302931 0.316539 0.0857776 -0.387426 0.336567 
0.0209423 0.101775 0.00430835 0.115286 0.247753 0.209261 0.0790103 -0.089386 0.328335 