# vtk DataFile Version 3.0
vtk output
ASCII
DATASET POLYDATA
POINTS 724 float
10.7244 -11.2605 11.6991 11.0686 -12.0708 11.6879 10.4068 -10.4741 11.8291 
11.4012 -12.8268 11.7344 10.1832 -9.85119 12.0671 10.5911 -10.9003 12.0146 
11.7277 -13.4917 11.7673 10.0281 -9.31399 12.4191 10.8768 -11.5788 12.0115 
10.375 -10.3373 12.2257 11.1705 -12.253 12.0644 11.4718 -12.9088 12.0956 
12.0132 -14.0057 11.7797 10.2071 -9.82954 12.4959 9.94616 -8.84152 12.8697 
10.639 -10.9956 12.3275 11.735 -13.4114 12.1935 10.9371 -11.7098 12.3691 
10.0965 -9.36491 12.8731 10.4186 -10.3967 12.5943 12.2736 -14.4249 11.8041 
9.94429 -8.4019 13.3976 11.2838 -12.4974 12.4451 12.0329 -13.9085 12.2198 
10.0391 -8.889 13.3209 10.2675 -9.86404 12.9542 10.6613 -11.0199 12.6805 
11.6229 -13.1847 12.5872 12.5094 -14.7664 11.8678 10.9379 -11.6984 12.7333 
10.001 -8.06633 13.879 10.1761 -9.3231 13.4169 10.4674 -10.419 13.0299 
12.3158 -14.3193 12.2536 10.1017 -8.65932 13.8298 11.2359 -12.3813 12.8508 
11.9862 -13.7941 12.6624 10.6893 -11.0096 13.1015 10.3472 -9.84813 13.4818 
10.1013 -7.74586 14.432 12.7307 -15.0499 11.9917 12.5829 -14.6703 12.2986 
11.5688 -13.0599 13.0157 10.142 -8.23904 14.2929 10.9319 -11.6191 13.1757 
10.2639 -9.19623 13.9519 10.5424 -10.41 13.5535 12.3603 -14.3109 12.6896 
11.2086 -12.2535 13.3136 10.2543 -8.65147 14.3939 10.4526 -9.77576 14.0627 
10.7508 -10.9794 13.6283 11.9664 -13.7249 13.1166 12.91 -15.246 12.1588 
10.2281 -7.84975 14.8295 10.2284 -7.39726 15.0762 12.7441 -14.8016 12.5698 
10.9765 -11.5506 13.7174 11.5416 -12.9287 13.4914 10.4106 -9.1332 14.5363 
10.6573 -10.3704 14.1669 12.4194 -14.3333 13.0899 10.3023 -8.15368 14.9021 
12.9759 -15.0613 12.6622 11.237 -12.1404 13.8559 10.8671 -10.9447 14.259 
10.6018 -9.69675 14.6914 11.9716 -13.6504 13.6037 10.4066 -8.51428 14.9918 
10.3498 -7.54439 15.4278 10.3537 -7.00226 15.7296 13.1011 -15.4109 12.4248 
12.7392 -14.6847 13.1228 11.0846 -11.4896 14.3546 11.5579 -12.7874 14.0205 
10.8117 -10.2986 14.8353 10.5574 -8.96558 15.1268 10.4227 -7.86479 15.4859 
12.4014 -14.2062 13.6875 13.0003 -14.9319 13.2256 10.4898 -6.53134 16.4096 
10.4675 -7.19877 16.0235 13.1908 -15.2086 13.017 11.3257 -12.0302 14.4713 
11.0231 -10.8725 14.9469 10.7508 -9.5171 15.3085 10.5267 -8.24866 15.5462 
11.9497 -13.4414 14.1925 13.2864 -15.5172 12.7956 12.7847 -14.599 13.7833 
10.5358 -7.5802 16.0337 11.2322 -11.392 15.0379 10.6824 -8.70468 15.6703 
10.9634 -10.1245 15.4885 11.6086 -12.588 14.6222 12.4091 -14.041 14.34 
10.5901 -6.58212 16.7138 13.1391 -14.9415 13.7524 10.7115 -5.85751 17.3424 
10.6434 -7.98001 16.0741 13.36 -15.2276 13.5512 10.8824 -9.25188 15.87 
11.1733 -10.6983 15.6216 11.4495 -11.8741 15.1346 10.6053 -6.93408 16.626 
11.9674 -13.1989 14.7964 13.4539 -15.561 13.2474 12.8888 -14.5509 14.3887 
10.8042 -8.43032 16.1898 10.657 -7.2998 16.5838 11.0938 -9.84967 16.0887 
11.373 -11.1964 15.7158 11.696 -12.3668 15.2445 12.4492 -13.8714 14.9433 
13.2601 -14.9024 14.3507 10.7714 -6.06541 17.4794 10.9684 -5.08101 18.3797 
10.7622 -7.69087 16.6013 13.5002 -15.1801 14.1903 11.0044 -8.94595 16.398 
11.2948 -10.4105 16.254 11.5701 -11.6452 15.791 10.7416 -6.52676 17.2542 
13.6041 -15.5595 13.7571 12.0112 -12.9386 15.3686 12.9395 -14.4121 15.0255 
11.0314 -5.14707 18.5825 10.9212 -8.10953 16.7127 10.7739 -6.93934 17.1413 
11.2081 -9.50685 16.6426 11.4824 -10.8931 16.3597 11.7846 -12.0994 15.8563 
13.311 -14.7656 15.0333 12.4289 -13.5673 15.5248 10.9425 -5.6689 18.1843 
13.6615 -15.2567 14.5581 11.2949 -4.0331 19.7496 10.874 -7.31021 17.1511 
11.1156 -8.5872 16.915 11.395 -10.0406 16.8386 11.6632 -11.3251 16.4241 
12.8796 -14.1058 15.6681 10.8865 -6.1576 17.8721 12.0438 -12.5961 15.9437 
13.5417 -14.9487 15.1427 13.7651 -15.5231 14.4242 11.278 -4.36659 19.6449 
11.0272 -7.71101 17.2478 11.3102 -9.10931 17.1647 10.912 -6.51147 17.7685 
11.5687 -10.5065 16.963 13.2243 -14.4363 15.7974 11.852 -11.7431 16.4744 
12.376 -13.1405 16.0894 11.0997 -5.19006 18.8935 13.7545 -15.1403 15.2791 
11.6944 -3.13506 21.1105 11.2151 -8.16653 17.4328 10.9969 -6.86606 17.7496 
11.4851 -9.61618 17.3787 13.5007 -14.6869 15.876 11.7354 -10.9187 17.0392 
12.07 -12.1795 16.5436 12.7551 -13.6384 16.2884 11.057 -5.61771 18.6369 
13.8899 -15.4655 15.0768 11.381 -4.1979 20.0791 11.7261 -3.31159 21.2067 
11.1371 -7.25746 17.8152 11.402 -8.66493 17.6698 11.6472 -10.0649 17.5253 
11.0691 -5.9899 18.4841 11.9076 -11.3089 17.0979 13.1219 -14.0452 16.4573 
12.3375 -12.6464 16.6732 13.6748 -14.8123 16.0431 11.2924 -4.60807 19.7557 
13.8573 -15.0949 15.8654 12.1229 -2.06259 22.5021 11.3141 -7.7032 17.9703 
11.569 -9.15381 17.8861 11.1366 -6.3632 18.4108 11.8056 -10.4619 17.625 
12.1017 -11.7053 17.1722 12.6678 -13.1422 16.8655 13.3915 -14.2919 16.6187 
11.2443 -5.00909 19.4813 13.9796 -15.3668 15.7729 11.683 -3.56995 21.1314 
11.4927 -8.19199 18.182 11.2603 -6.76689 18.4277 11.7245 -9.59275 18.0488 
11.9702 -10.8347 17.7084 12.0908 -2.48347 22.4008 11.2437 -5.41064 19.2676 
13.6586 -14.5913 16.6336 12.3379 -12.1442 17.2864 13.0044 -13.5605 17.0793 
11.5591 -3.98463 20.7489 13.8644 -14.8986 16.5188 12.3747 -1.00194 23.5292 
11.4254 -7.22239 18.5408 11.6525 -8.67333 18.3856 11.2952 -5.82281 19.1284 
11.8801 -9.9855 18.173 12.1561 -11.2189 17.7994 12.6243 -12.6163 17.466 
11.477 -4.4 20.3902 13.3388 -13.9688 17.1915 11.9913 -2.95138 22.1319 
14.0132 -15.2265 16.3928 11.595 -7.71652 18.7201 11.4036 -6.26541 19.0821 
11.8026 -9.11083 18.5502 13.6199 -14.332 17.1873 12.0465 -10.3604 18.2834 
11.4489 -4.82917 20.0928 12.3377 -1.60973 23.3428 12.3783 -11.6417 17.9234 
12.9648 -13.1431 17.6419 11.8559 -3.46197 21.6947 13.8429 -14.6841 17.0823 
12.5948 -0.180599 24.3365 11.5567 -6.74884 19.1448 11.747 -8.202 18.9012 
11.477 -5.29093 19.8686 11.9569 -9.51074 18.6869 11.7541 -3.92716 21.269 
12.2358 -10.748 18.4031 13.2998 -13.6365 17.7288 12.6539 -12.1573 18.0725 
12.2418 -2.25991 22.9989 14.009 -15.0532 16.9486 11.5682 -5.777 19.7582 
11.7176 -7.26499 19.2865 11.6962 -4.39503 20.8802 11.8898 -8.64576 19.0531 
13.5851 -14.0663 17.7022 12.128 -9.8993 18.8183 12.1214 -2.93264 22.5322 
12.4637 -11.1987 18.5404 12.5307 -0.881335 24.0832 12.9735 -12.7427 18.2078 
13.8124 -14.4596 17.5954 11.7012 -4.86332 20.6021 11.7079 -6.30037 19.7673 
12.0143 -3.57535 22.0116 11.862 -7.76779 19.441 12.8515 0.503326 25.081 
12.0401 -9.05676 19.186 12.3294 -10.3172 18.9617 13.2904 -13.3078 18.2557 
12.4352 -1.63998 23.684 12.7362 -11.7463 18.6861 13.9861 -14.8606 17.4574 
12.3075 -2.55911 23.0988 11.9662 -4.0891 21.6142 11.768 -5.36293 20.4395 
11.86 -6.85214 19.8676 13.5641 -13.7961 18.2029 11.997 -8.22434 19.5726 
12.213 -9.46813 19.3209 12.5735 -10.8043 19.1288 13.0346 -12.3722 18.7889 
12.7328 -0.346908 24.7077 13.7848 -14.2276 18.0865 12.5508 -1.47144 24.0118 
12.2489 -3.24974 22.6652 11.9642 -4.56568 21.3162 11.8846 -5.91106 20.3958 
11.999 -7.38345 19.9958 12.1398 -8.64916 19.6883 13.3196 -12.9859 18.7945 
13.1055 1.19921 25.7475 12.4245 -9.918 19.4811 12.8564 -11.3882 19.2958 
13.9586 -14.6574 17.9373 12.7842 -0.540532 24.786 12.492 -2.21642 23.6171 
12.2312 -3.82771 22.305 12.0067 -5.0631 21.1167 13.5668 -13.5215 18.7105 
12.0215 -6.49163 20.4529 12.1279 -7.85991 20.107 12.3083 -9.07729 19.8121 
13.142 -12.0402 19.3881 12.688 -10.4458 19.6826 13.0361 0.554999 25.5426 
13.7705 -13.988 18.5781 12.4698 -2.90927 23.269 12.7284 -1.2122 24.4629 
12.2379 -4.34722 22.0079 12.0914 -5.61078 21.0264 12.1539 -7.04959 20.5542 
12.2628 -8.2972 20.203 13.3926 -12.6771 19.3595 12.5222 -9.55042 19.9744 
12.9904 -11.0715 19.8909 13.3755 2.04128 26.4081 13.9364 -14.4486 18.4043 
12.9838 -0.133263 25.2944 12.4752 -3.55687 22.9519 12.6953 -1.88565 24.1375 
12.2671 -4.85792 21.7868 13.6035 -13.2432 19.2432 12.2037 -6.19525 21.041 
12.2795 -7.5455 20.649 12.4226 -8.73481 20.3079 13.2746 -11.7446 19.9998 
12.7983 -10.112 20.2005 13.2466 1.13835 26.067 13.7795 -13.7382 19.0919 
12.936 -0.850497 24.9786 12.6863 -2.57898 23.8285 12.4969 -4.14703 22.6714 
12.3235 -5.39691 21.6623 12.3253 -6.76108 21.1155 12.409 -7.9943 20.7296 
13.5 -12.3853 19.9556 12.6301 -9.21871 20.4579 13.1182 -10.7753 20.4537 
13.9269 -14.2362 18.871 13.616 2.87843 26.9557 13.1693 0.300705 25.751 
12.9104 -1.552 24.662 12.7013 -3.27819 23.5448 13.676 -12.9614 19.814 
12.5271 -4.69594 22.4482 12.4081 -5.96286 21.6412 12.4484 -7.2668 21.1973 
12.5599 -8.43642 20.8163 13.4066 -11.4674 20.6026 12.9057 -9.79666 20.6864 
13.4433 1.76671 26.5448 13.8194 -13.4728 19.6473 13.1312 -0.485792 25.4479 
12.9046 -2.26914 24.3599 12.7335 -3.93853 23.2938 12.5691 -5.23604 22.3079 
12.515 -6.51307 21.6908 12.5755 -7.72271 21.2679 13.6184 -12.1038 20.5716 
12.7547 -8.92032 20.944 13.2302 -10.4798 20.9664 13.9353 -14.0212 19.342 
13.8146 3.68337 27.3772 13.3341 0.787763 26.1605 13.1195 -1.23504 25.1544 
12.9186 -3.00642 24.0901 12.7726 -4.53854 23.0898 13.7701 -12.6737 20.4231 
12.6336 -5.77756 22.2651 12.6346 -7.0117 21.7605 12.7188 -8.16622 21.3395 
13.5191 -11.1835 21.1602 13.0146 -9.49421 21.1508 13.9609 -13.8028 19.811 
13.3257 -10.1732 21.4254 12.8973 -8.64257 21.4417 12.7606 -7.46524 21.824 
12.727 -6.298 22.2965 13.2978 -0.0914273 25.8563 13.1213 -1.98678 24.8656 
12.8155 -5.09205 22.9577 12.9526 -3.72221 23.8647 13.633 2.41954 27.0007 
13.7235 -11.8125 21.1731 13.8869 -13.1853 20.2552 13.1306 -9.19752 21.6098 
13.6069 -10.8762 21.6478 12.8976 -7.9048 21.8835 12.8414 -6.77472 22.3557 
12.8745 -5.6155 22.9141 13.861 -12.3604 21.0571 12.9988 -4.36948 23.6922 
13.1336 -2.75534 24.6015 13.3045 -0.904437 25.5955 13.4873 1.31762 26.5475 
13.9733 4.43465 27.728 14.0004 -13.5563 20.314 13.4113 -9.85166 21.8474 
13.0588 -8.36955 21.9603 13.8058 -11.4973 21.719 12.9654 -7.21412 22.4121 
12.9615 -6.10603 22.9412 13.0519 -4.94098 23.5897 13.1613 -3.5083 24.39 
13.3249 -1.70288 25.3407 13.4368 0.338464 26.2132 13.9597 -12.836 20.9249 
13.8126 3.10738 27.4306 13.2594 -8.89948 22.0831 13.6738 -10.5393 22.0707 
13.0965 -7.64196 22.461 13.0723 -6.55539 22.9978 13.1189 -5.45612 23.5684 
[...]
POINT_DATA 724
VECTORS velocity double
0.0905217 -0.0136937 -0.383639 0.125674 -0.0391617 -0.369257 -0.0272217 0.0876373 -0.338008 
0.0549707 0.0185017 -0.273502 -0.121072 0.15792 -0.313447 0.00965315 -0.00242586 -0.353027 
-0.0205769 0.045723 -0.184537 -0.170741 0.172154 -0.326279 0.0743337 -0.0855942 -0.369202 
-0.0793603 0.074306 -0.31462 0.0608422 -0.0856296 -0.32518 -0.0148402 -0.0153215 -0.23599 
-0.0271266 -0.0164535 -0.170655 -0.139915 0.122274 -0.297576 -0.179762 0.138243 -0.36627 
-0.0051651 -0.0599878 -0.317977 -0.0853907 0.0153021 -0.165076 0.0452318 -0.149405 -0.311645 
-0.161242 0.118804 -0.306315 -0.0856301 0.0187594 -0.266643 0.0170991 -0.129143 -0.214561 
-0.167893 0.0849319 -0.412575 0.00130125 -0.114195 -0.23355 -0.100094 -0.0219909 -0.15209 
-0.151523 0.0776661 -0.344509 -0.128086 0.0567619 -0.237401 -0.0157927 -0.117281 -0.245092 
-0.0983931 -0.0213175 -0.118244 0.0803514 -0.244832 -0.285399 0.0308289 -0.209191 -0.22339 
-0.159347 0.0546811 -0.433875 -0.125174 0.0389001 -0.252308 -0.0751934 -0.0505764 -0.172776 
-0.0566974 -0.122478 -0.195554 -0.117153 0.0131101 -0.343836 0.00299647 -0.187119 -0.141866 
-0.145053 0.000288039 -0.0773197 -0.00983294 -0.182906 -0.128398 -0.0915156 -0.0254452 -0.138649 
-0.159031 0.0562874 -0.423304 0.143391 -0.33973 -0.359796 0.0202113 -0.238904 -0.267971 
-0.085301 -0.0655327 -0.0188126 -0.107221 -0.0105998 -0.373151 0.0385972 -0.277851 -0.0895527 
-0.0774789 -0.0385615 -0.202949 -0.0415054 -0.131005 -0.0391096 -0.0942233 -0.0985151 -0.133052 
0.0355414 -0.2706 -0.00780921 -0.0613464 -0.0661317 -0.276908 -0.0419697 -0.101897 -0.0435542 
0.021106 -0.257732 0.0262977 -0.150938 0.0247573 0.0377151 0.188876 -0.394045 -0.409982 
-0.111711 0.00562714 -0.363543 -0.173416 0.113794 -0.38035 0.0426071 -0.272711 -0.274055 
0.0761482 -0.353705 0.0743241 -0.0334059 -0.128015 0.109587 -0.0247353 -0.112558 -0.14021 
0.00427372 -0.197776 0.0820274 -0.099959 -0.0610722 -0.0462011 -0.0625252 -0.0618649 -0.307499 
0.123993 -0.343389 -0.330088 0.0954809 -0.356171 0.139206 0.0667491 -0.316679 0.150792 
-0.00158243 -0.149183 0.00487277 -0.119253 0.0420449 0.169878 -0.0196024 -0.119813 -0.228763 
-0.118801 0.0543294 -0.319411 -0.204598 0.231326 -0.335375 0.227341 -0.419312 -0.433193 
-0.00582725 -0.170251 -0.128294 0.12879 -0.410995 0.185245 0.0485926 -0.210877 0.221797 
0.0281835 -0.207469 0.102815 0.00726308 -0.153441 -0.126596 -0.0593409 -0.0411168 -0.271939 
-0.0992787 0.0367952 0.12951 0.0811485 -0.23917 -0.174323 -0.229533 0.354674 -0.29619 
-0.142829 0.151128 -0.284887 0.172353 -0.338352 -0.296509 0.162875 -0.424824 0.21343 
0.0844448 -0.305929 0.139616 0.00721201 -0.147293 -0.0334015 -0.00894291 -0.123144 -0.211769 
-0.0366147 0.000931852 0.276684 0.254854 -0.402126 -0.400055 -0.00709995 -0.0544348 0.0577557 
-0.0732521 0.0203834 -0.244428 0.150205 -0.402276 0.1452 0.0157668 -0.162088 -0.143777 
0.00504032 -0.142232 0.00635304 0.142158 -0.318226 0.244569 -0.0596296 0.0837597 0.250163 
-0.189574 0.312043 -0.261891 0.108091 -0.172841 -0.0460148 -0.197749 0.366018 -0.203933 
-0.0180192 -0.0862543 -0.199331 0.197345 -0.270509 -0.166675 -0.00308825 -0.126608 -0.101028 
0.0413162 -0.201578 0.00297032 0.194863 -0.442533 0.142601 -0.143572 0.212529 -0.248997 
0.0601749 -0.107978 0.263591 0.276525 -0.349098 -0.303626 0.0256173 -0.0069505 0.157232 
0.00678095 -0.139795 -0.158801 -0.0895603 0.0956063 -0.224509 -0.040744 -0.0555101 -0.110674 
0.1026 -0.296578 -0.00986627 0.194332 -0.392036 0.141931 -0.0122857 0.0499871 0.236689 
0.13793 -0.124248 0.0676936 -0.159633 0.314914 -0.186414 -0.147146 0.305597 -0.0673535 
-0.0399095 -0.0159239 -0.194121 0.223594 -0.206607 -0.0176216 -0.0192725 -0.10064 -0.150358 
-0.0391575 -0.0513128 -0.137514 0.156146 -0.370129 -0.017733 -0.138752 0.262943 -0.207625 
0.301384 -0.289073 -0.172424 0.127197 -0.227948 0.144908 0.0422285 -0.00662564 0.168769 
-0.118492 0.284123 -0.0439222 -0.0160694 -0.0815162 -0.171699 -0.102447 0.172723 -0.204363 
-0.0768 0.0048538 -0.180891 0.00290434 -0.118336 -0.149924 0.179383 -0.384885 -0.0161256 
0.144643 -0.117232 0.112574 0.031782 -0.0456916 0.130856 -0.109316 0.259339 -0.093661 
0.276329 -0.22391 0.0162739 -0.13529 0.442634 0.0667744 -0.0650751 0.078145 -0.188948 
-0.0373748 -0.0621479 -0.175926 -0.10666 0.0682301 -0.207258 0.0565475 -0.204541 -0.146754 
0.0275396 -0.0311437 0.099174 -0.103589 0.241465 -0.138441 0.149573 -0.307897 -0.00914993 
0.216807 -0.190851 0.0805284 0.339983 -0.260506 -0.0363675 -0.108082 0.396629 0.0505626 
-0.0426879 0.00556327 -0.177476 -0.0936131 0.0349327 -0.203141 -0.0870847 0.199745 -0.152283 
-0.0928834 0.0526089 -0.206483 0.0919476 -0.113994 0.0722608 0.09762 -0.266362 -0.134328 
0.069478 -0.159517 -0.00328431 -0.0824444 0.264172 -0.0122447 0.290716 -0.260418 0.0557007 
-0.0916314 0.472404 0.242347 -0.0542828 -0.00455772 -0.183825 -0.0664303 0.140466 -0.155421 
-0.136384 0.121096 -0.215268 0.169104 -0.20095 0.05869 -0.0561117 -0.0057737 -0.18779 
0.105521 -0.268619 -0.115681 0.0136828 -0.0685857 0.0029556 -0.064526 0.218968 -0.0401075 
0.373779 -0.299765 0.0251709 -0.0897812 0.430888 0.0818796 -0.0665841 0.459538 0.217727 
-0.0519266 0.0812953 -0.15777 -0.0974545 0.0562636 -0.202314 -0.14364 0.146087 -0.197575 
-0.0499082 0.184523 -0.0618338 -0.0162335 -0.0692365 -0.160461 0.0324404 -0.0880854 0.022786 
0.0670091 -0.19188 -0.0886591 0.216629 -0.258207 0.05057 -0.0716764 0.361903 0.053301 
0.303532 -0.31798 0.0482011 0.00412663 0.323301 0.390835 -0.0596281 0.0561402 -0.170827 
-0.137116 0.127115 -0.202105 -0.0368722 0.146591 -0.0792456 -0.12647 0.126815 -0.162013 
0.010311 -0.105958 -0.126207 0.00714629 -0.0788384 -0.0411739 0.0804301 -0.143303 0.0453081 
-0.0495269 0.285765 0.035796 0.382502 -0.365714 0.0416172 -0.0542272 0.454014 0.17698 
-0.0922498 0.08192 -0.191048 -0.0298003 0.107177 -0.0969436 -0.151299 0.160111 -0.172077 
-0.0989253 0.0906431 -0.118222 0.0223549 0.354262 0.33329 -0.0259571 0.215193 0.0221604 
0.160621 -0.226709 0.0636076 0.00988724 -0.0883418 -0.0802919 -0.0119272 -0.0264066 0.0263325 
-0.0549253 0.444735 0.120468 0.252583 -0.309968 0.0651748 -0.0999054 0.245398 0.123152 
-0.0403117 0.0858898 -0.124857 -0.125464 0.122357 -0.19232 -0.00544114 0.155416 0.00699506 
-0.143912 0.158359 -0.123705 -0.0712691 0.0600195 -0.0690832 -0.0186245 -0.00979184 -0.0129317 
-0.0445736 0.397431 0.0849937 0.0280528 -0.0621127 0.0920337 0.0196311 0.374459 0.271467 
0.350734 -0.384057 0.0620487 -0.0722986 0.0975617 -0.161681 0.00530342 0.108692 -0.0158272 
-0.139816 0.140051 -0.162731 0.10148 -0.146789 0.125131 -0.123966 0.139604 -0.0676738 
-0.0238441 0.31894 0.066848 -0.00393404 0.288502 0.209854 -0.0543899 0.0605529 -0.0147343 
-0.0354911 0.0567773 0.0799696 -0.00109104 0.396268 0.194903 0.191282 -0.245977 0.126125 
-0.266662 0.358278 -0.30233 -0.00474043 0.0856177 -0.0556691 -0.106479 0.118216 -0.182208 
0.00249188 0.22646 0.0563624 -0.135113 0.1322 -0.111595 -0.0141016 0.400144 0.131396 
-0.0990333 0.122249 -0.0113587 -0.00369355 0.0326738 0.167848 -0.0531231 0.105261 0.0469956 
0.056889 0.319258 0.264929 0.294288 -0.343772 0.11541 0.022789 0.145518 0.0401729 
-0.0400387 0.0929222 -0.113333 -0.0123007 0.366441 0.0900301 -0.124282 0.119766 -0.169848 
0.0610728 -0.0547114 0.21433 -0.116913 0.110305 -0.0512242 0.0630754 0.326597 0.245187 
-0.0769229 0.128779 0.0362952 -0.139101 0.311664 -0.101298 -0.0503856 0.149786 0.128875 
0.14076 -0.16058 0.218428 0.00278254 0.294575 0.0688684 0.0203082 0.0963263 0.000934585 
0.0387794 0.327157 0.170711 -0.0818253 0.107429 -0.161827 -0.287809 0.504678 -0.429847 
-0.123333 0.0991094 -0.130204 -0.0911456 0.0919949 0.00532933 -0.016328 0.116273 0.225415 
0.00317661 0.303985 0.104609 -0.0647148 0.174372 0.070329 0.235705 -0.27041 0.20006 
0.0884772 0.297647 0.21998 0.0218647 0.316416 0.107939 0.0197491 0.206336 0.0519391 
-0.0141185 0.0871957 -0.067046 0.0416239 0.0237708 0.293149 -0.108726 0.102923 -0.177229 
-0.107036 0.0654057 -0.0753135 -0.0665188 0.10509 0.0373001 -0.0509516 0.211691 0.122627 
-0.218453 0.389134 -0.301605 0.109436 -0.0830838 0.313758 -0.0229467 0.311024 0.0103948 
0.0904697 0.258252 0.193212 0.0159317 0.281706 0.0667507 0.0201076 0.133571 0.0178578 
-0.062432 0.0938312 -0.136318 -0.115929 0.076269 -0.160231 -0.0139988 0.169121 0.223321 
-0.200291 0.559212 -0.262285 -0.0799689 0.0370101 -0.0228254 -0.0517214 0.166788 0.0341144 
0.190194 -0.194491 0.298054 -0.171661 0.373851 -0.239792 0.0818892 0.287606 0.144713 
0.0707553 0.221016 0.131794 0.0146083 0.22359 0.0368615 0.0396783 0.0715929 0.324018 
-0.0109478 0.099848 -0.0459671 -0.0988369 0.0867743 -0.176358 -0.105255 0.0358356 -0.12098 
-0.0364345 0.216158 0.0519747 -0.0513284 0.0493794 -0.00365514 -0.195306 0.492094 -0.279439 
0.0977594 -0.0336899 0.379673 0.120839 0.223868 0.183742 -0.0586468 0.323559 -0.0788396 
0.0463199 0.194609 0.0733602 0.00425484 0.161361 0.00160286 -0.0604946 0.0903936 -0.118667 
-0.115157 0.0605482 -0.182953 -0.001211 0.177901 0.15081 -0.0794836 0.000910918 -0.0766634 
-0.0323678 0.123009 -0.0320896 -0.0948128 0.485858 0.0121461 0.16362 -0.13935 0.384885 
-0.156176 0.40494 -0.210789 0.116058 0.13931 0.161723 0.0523183 0.287372 0.0613168 
0.021285 0.168712 0.0259831 0.0488754 0.0807755 0.285144 -0.0285635 0.120248 -0.0520656 
-0.101696 0.0764345 -0.169374 -0.111897 0.0224495 -0.163512 -0.0161003 0.179402 -0.0362583 
-0.0460257 0.0135483 -0.0597239 -0.11729 0.489379 -0.12093 0.10093 -0.0224854 0.388433 
-0.0776306 0.334405 -0.0902324 0.122328 0.218882 0.149442 0.085981 0.0823489 0.109745 
-0.00884436 0.140774 -0.0168739 -0.076401 0.0983044 -0.113281 -0.123643 0.0505985 -0.190626 
0.0145541 0.147079 0.0480928 -0.0896443 -0.00848925 -0.130647 -0.0180117 0.0942128 -0.082727 
0.154572 -0.117901 0.436929 -0.0347986 0.388051 0.19339 -0.105005 0.414803 -0.109869 
0.024441 0.286787 0.038704 0.14074 0.102539 0.182549 0.0597949 0.0558278 0.190588 
0.043283 0.0628078 0.0521415 -0.0503791 0.118619 -0.0633846 -0.117193 0.0763247 -0.159614 
-0.125574 0.0191437 -0.187056 0.00256236 0.142755 -0.0767793 -0.0514385 0.0112487 -0.108286 
-0.0531246 0.426257 0.027058 0.109118 -0.0466452 0.329883 -0.0522643 0.331108 -0.00736178 
0.107859 0.22454 0.138267 0.118928 -0.00378493 0.168066 -0.0056212 0.064534 -0.000622251 
-0.0974629 0.101492 -0.109884 -0.13997 0.0493435 -0.183891 0.0270733 0.102821 -0.0089965 
-0.106184 -0.000467335 -0.1658 -0.00998118 0.0971597 -0.101365 0.156254 -0.130422 0.439541 
-0.037633 0.40852 0.169537 -0.0552864 0.407709 -0.01882 0.0283968 0.273615 0.113325 
0.14277 0.107552 0.199297 0.0724941 -0.0495467 0.122592 0.0634921 0.0154211 0.102519 
-0.0575158 0.0726823 -0.0474093 -0.135022 0.0808655 -0.145619 -0.143078 0.0239721 -0.188627 
0.0188713 0.132495 -0.0556589 -0.0637628 0.0297031 -0.138858 0.158147 -0.162728 0.396568 
-0.00829832 0.116936 -0.102597 -0.124159 0.0155469 -0.176998 -0.155196 0.0570869 -0.167161 
-0.105023 0.0773573 -0.0875348 -0.0122896 0.322321 0.0829929 0.102144 0.223285 0.198105 
0.015534 -0.0429253 0.0672504 0.131735 -0.0317596 0.221195 -0.0079304 0.340251 0.137099 
0.0373734 0.0754649 0.0187115 0.108848 -0.0872857 0.234412 -0.0787527 0.0520035 -0.151895 
0.0321012 0.144277 -0.016961 -0.156606 0.0378487 -0.175989 -0.13863 0.0741284 -0.119469 
-0.0406742 -0.0138646 0.0150268 0.0597398 -0.0144718 0.091478 0.0919978 -0.116598 0.202174 
0.134907 0.13248 0.241078 0.0578657 0.251448 0.228634 -0.0167493 0.371571 0.0487837 
-0.101661 0.494061 -0.0688832 0.150339 -0.197212 0.325023 -0.0134147 0.133243 -0.103592 
-0.136868 0.036135 -0.172972 0.0491494 0.0750071 0.088167 -0.154864 0.0658608 -0.143604 
-0.0863324 0.0167601 -0.0313574 0.0399346 -0.129488 0.155703 0.124291 -0.00216966 0.259707 
0.117795 0.209704 0.319567 0.0191992 0.312641 0.131521 0.0912258 -0.112151 0.17285 
0.00727711 0.323466 0.158479 -0.0911771 0.070363 -0.156038 0.0390988 0.159641 -0.00023223 
-0.153998 0.0590937 -0.160482 -0.11509 0.0416971 -0.0735242 -0.0105844 -0.0994137 0.0985929 
0.090138 -0.108641 0.249817 0.0592772 -0.0208066 0.162332 0.133511 0.159032 0.325485 
0.0903114 0.229946 0.312246 0.0145143 0.302947 0.104437 -0.205595 0.558012 -0.431686 
0.126324 -0.216849 0.260862 -0.0233161 0.13689 -0.112085 -0.134723 0.0629277 -0.168908 
0.0607143 0.0904615 0.133354 -0.127003 0.0614029 -0.112476 -0.0486949 -0.0535176 0.0382651 
0.0478747 -0.144632 0.207268 0.108085 0.0648433 0.295722 0.147638 0.187248 0.442848 
0.0377117 0.294215 0.139957 0.0740919 -0.116743 0.21366 -0.0233927 0.408713 0.0320421 
-0.0934 0.0882734 -0.163908 0.0378284 0.163486 -0.0134031 -0.124493 0.0778615 -0.14663 
-0.069702 -0.00483585 -0.0230941 0.00883606 -0.125245 0.141702 0.0661558 -0.00962557 0.238579 
0.0693464 -0.0329404 0.257072 0.110487 0.213104 0.335565 0.148095 0.173541 0.437962 
0.0345417 0.251411 0.134151 0.0951587 -0.213185 0.264938 -0.278158 0.5406 -0.702248 
-0.0317278 0.132137 -0.13132 -0.10811 0.0937454 -0.172099 0.0677656 0.104419 0.130223 
-0.0756008 0.0413941 -0.0818925 -0.0177255 -0.0776187 0.0631288 0.0326281 -0.077405 0.196835 
0.0979926 0.138903 0.342801 0.0495559 0.252533 0.131514 0.174558 0.163263 0.511328 
0.0693706 -0.105798 0.302906 -0.114852 0.512578 -0.264668 -0.07611 0.112265 -0.181378 
0.0302722 0.151445 -0.0477931 -0.0704223 0.0818907 -0.133207 -0.0281567 -0.0210883 -0.0169272 
0.00360009 -0.0661989 0.110777 0.0748748 0.00673843 0.265166 0.0418253 0.0797566 0.242379 
0.173968 0.169904 0.532148 0.108126 0.202376 0.282262 0.026614 0.302358 0.0856429 
0.0754356 -0.194323 0.341644 -0.0288604 0.131046 -0.160699 -0.0567311 0.113725 -0.172013 
-0.222826 0.440419 -0.611472 0.0678268 0.105661 0.0876638 -0.0250045 0.0323344 -0.0844859 
-0.0120321 -0.0240618 0.00967008 0.0017942 0.0467684 0.141569 0.103161 0.192666 0.396431 
0.185328 0.142304 0.502774 0.0566163 0.194707 0.118729 0.0738827 -0.0885419 0.361772 
-0.130249 0.510099 -0.339963 0.0231135 0.131451 -0.0930736 -0.0352074 0.133356 -0.191309 
-0.0134019 0.0761825 -0.130449 -0.0114344 0.0228371 -0.08263 0.0801849 0.0176881 0.235782 
-0.0219299 0.0557491 0.0269774 0.0220577 0.190338 0.226368 0.197126 0.154073 0.567955 
0.0921743 0.178842 0.189392 0.0716056 -0.171241 0.421026 -0.00627034 0.135722 -0.180353 
0.0308033 0.307556 0.0407053 0.0616147 0.0909242 0.024433 0.00200812 0.107106 -0.153358 
0.00256025 0.0567672 -0.138891 -0.116603 0.400151 -0.357925 -0.0285703 0.084 -0.0895591 
0.175972 0.123269 0.426451 -0.029149 0.184051 0.0755764 0.11934 0.214987 0.423971 
0.0798283 -0.0736626 0.358264 0.0263989 0.114539 -0.128144 -0.17633 0.453415 -0.462483 
0.0179913 0.122058 -0.155692 0.0818806 0.135598 0.121312 0.0232568 0.0721492 -0.14666 
0.0790013 0.015605 0.167432 -0.0173242 0.101156 -0.175305 0.206909 0.132117 0.539534 
-0.051071 0.189544 -0.0593681 0.0197469 0.262253 0.208661 0.074999 -0.151456 0.443525 
-0.0129251 0.421802 -0.0942917 0.0326943 0.116623 -0.13846 0.054582 0.0666724 -0.0332605 
0.0438195 0.0718313 -0.114226 0.154493 0.0984731 0.315437 0.00669847 0.0913996 -0.200026 
0.133104 0.212809 0.392985 -0.0491901 0.188034 -0.16528 -0.0414392 0.278617 0.0271091 
-0.0318609 0.456866 -0.153747 0.0812999 -0.0677111 0.297235 0.0758197 0.140484 0.0790707 
0.04515 0.0869054 -0.0990478 0.059442 0.0604174 -0.0612734 -0.140892 0.347888 -0.370042 
0.201351 0.10329 0.464917 0.0338636 0.0590513 -0.159009 0.0709767 -0.00168885 0.0898017 
-0.0284866 0.158631 -0.21775 0.0320234 0.27864 0.16238 -0.0610764 0.268015 -0.0996974 
0.0765444 -0.139307 0.394437 -0.0632592 0.457366 -0.216803 0.0546313 0.034686 -0.0346123 
0.131524 0.0607507 0.199966 0.0676261 0.040034 -0.00628749 0.0564141 0.016205 -0.0714999 
0.000995124 0.102757 -0.208747 0.13663 0.191781 0.311188 -0.0522245 0.226555 -0.166813 
-0.0274321 0.289725 -0.0107739 0.0242999 0.55334 -0.0245979 0.074008 -0.0761318 0.205584 
0.0545211 0.255815 0.0148275 0.067899 0.00986043 0.0410997 0.0707727 -0.0275479 0.0340907 
0.0601347 -0.0309256 0.0527668 0.182266 0.0602161 0.358648 -0.076249 0.290186 -0.209188 
0.02831 0.0358659 -0.149405 -0.027799 0.15936 -0.177983 0.0455757 0.252004 0.0755183 
-0.0432482 0.251712 -0.100042 -0.08824 0.386913 -0.247529 0.0688398 -0.13873 0.292336 
0.106805 0.038337 0.0903337 0.0617365 -0.0305663 0.0804593 0.075979 -0.067238 0.132359 
0.0474605 -0.030704 -0.0540856 0.00013523 0.0833628 -0.152063 0.135598 0.139726 0.236463 
-0.0333539 0.182985 -0.120975 -0.00730734 0.2424 -0.0738218 0.0612301 0.637601 0.0549321 
0.0565736 -0.100573 0.141074 0.0190352 0.393707 -0.0642176 0.0523122 -0.0779489 0.116586 
0.0574719 -0.0918893 0.0613366 0.0719824 -0.102134 0.207354 0.0231565 0.0126347 -0.106834 
0.146761 -0.000874745 0.201855 -0.0125781 0.102897 -0.0989836 -0.0209594 0.183151 -0.11989 
0.0537283 0.199485 0.00822149 -0.0192831 0.325141 -0.0768126 -0.0687899 0.277504 -0.172317 
0.0463096 -0.152995 0.202704 0.0686997 0.209796 0.00540724 0.0596473 -0.144092 0.177144 
0.0372905 -0.0507375 -0.044684 0.00962154 0.0285707 -0.0599303 0.0591931 -0.131996 0.248863 
-0.0134063 0.102842 -0.100081 0.134091 0.0522891 0.202995 0.0045967 0.184356 -0.121394 
0.0846482 0.690967 0.102891 0.0403101 -0.139951 0.206079 -0.0347299 0.342292 -0.113565 
0.0421608 -0.111527 0.0412321 0.0273009 -0.0285815 -0.0246857 0.0552719 -0.184124 0.275197 
0.00332867 0.0188363 -0.0464699 0.104095 0.00717774 0.046421 -0.00939911 0.12141 -0.140732 
0.0706157 0.120941 0.051939 -0.00476064 0.303999 -0.0318443 0.0228886 -0.18338 0.239291 
0.0453694 -0.20394 0.336042 0.0369303 -0.0687145 0.000839998 0.0331247 0.387291 -0.0250064 
0.0399923 -0.170808 0.150089 0.0223498 -0.0564655 0.0178176 -0.00380328 0.0397878 -0.0976436 
0.0243426 0.127085 -0.0489169 0.119059 -0.0311716 0.112944 0.096716 0.712078 0.12752 
0.0309946 -0.208915 0.338434 -0.0219827 0.202914 -0.0412124 0.0374056 -0.106261 0.033625 
0.0341738 -0.221758 0.270253 0.038173 -0.108958 0.0702683 0.0110874 -0.0472174 -0.024604 
0.00894804 0.0817805 -0.0590677 0.0670726 0.256139 -0.00182094 0.0901994 0.0322485 0.115701 
0.0282428 0.400766 0.0337331 0.0301673 -0.156686 0.100791 0.0459819 -0.128471 0.091637 
0.0126641 -0.236605 0.363054 0.00633225 0.25423 0.0136329 0.0298486 -0.131536 0.0604561 
0.0109673 0.012297 -0.0215276 0.0532581 0.0820051 0.0892701 0.0228186 -0.25119 0.351048 
0.0845907 0.0391956 0.00125956 0.103075 0.714512 0.14196 0.0205627 0.304717 0.037079 
0.0196347 -0.210689 0.196471 0.043695 -0.124951 0.0835322 0.0477014 -0.199655 0.139727 
0.0218211 -0.0697018 0.0393194 0.0371094 0.0774507 0.099906 0.0584688 0.354878 0.0598042 
0.0842751 -0.0145359 0.0476596 0.0336147 -0.13075 0.0813653 0.00424832 -0.266111 0.369902 
0.0587641 -0.230716 0.189072 0.0185536 0.152624 0.071649 0.0374059 -0.158658 0.113261 
0.0363107 0.0335512 0.134102 0.0633912 0.0407732 0.105916 0.00737497 -0.24045 0.256307 
0.0718742 0.273107 0.0264222 0.104996 0.706541 0.148742 0.0198303 -0.158472 0.111231 
0.0443887 0.409011 0.078224 0.0586067 -0.214202 0.190566 0.0545293 -0.245585 0.191105 
0.0503686 0.0853562 0.171094 0.0634902 0.0850539 -0.0142743 0.0430873 -0.0345563 0.177505 
0.0563446 0.208592 0.146884 0.0487354 -0.172787 0.157095 -0.00487404 -0.239391 0.250758 
0.0687106 -0.310135 0.257627 0.0910591 0.325478 0.142865 0.0505665 0.0432805 0.0267334 
0.0513782 0.0862361 0.239982 0.0534404 -0.121528 0.223378 0.00918145 -0.168461 0.130184 
0.034952 0.265892 0.0862729 0.10429 0.691014 0.152553 0.0340535 -0.141911 0.122477 
0.0737164 -0.324316 0.288153 0.0657241 0.120439 0.197891 0.0679111 0.233273 0.0364729 
0.0396489 0.0835798 0.107182 0.0652479 -0.221406 0.269024 0.0595094 0.0501871 0.302563 
0.0654488 -0.276085 0.264242 0.00601018 -0.148282 0.117373 0.101649 0.672148 0.153994 
0.0455305 0.302418 0.108224 0.115289 0.258201 0.259563 0.0766301 -0.317015 0.313962 
0.0402883 0.13543 -0.00778822 0.041098 0.118088 0.206996 0.0696517 -0.0203311 0.349471 
0.0370171 -0.157263 0.155427 0.0799624 0.0851871 0.242117 0.0830542 -0.375806 0.345694 
0.0217728 0.116524 0.0214654 0.108088 0.298884 0.194829 0.0785731 -0.1214 0.375021 