# vtk DataFile Version 3.0
vtk output
ASCII
DATASET POLYDATA
POINTS 724 float
10.7676 -11.266 11.5289 11.1276 -12.0859 11.5239 10.3951 -10.4342 11.6798 
11.4293 -12.8171 11.612 10.1285 -9.77958 11.9274 10.5968 -10.9002 11.8568 
11.7215 -13.4683 11.6854 9.95127 -9.23663 12.2712 10.9121 -11.6146 11.8456 
10.3393 -10.3021 12.0847 11.1991 -12.2874 11.918 11.4676 -12.913 11.9886 
12.0021 -14.0079 11.7067 10.1438 -9.77279 12.3606 9.86506 -8.7796 12.7025 
10.6374 -11.0205 12.1835 11.6995 -13.4008 12.1192 10.9573 -11.7727 12.2272 
10.0236 -9.31039 12.7318 10.3797 -10.3855 12.473 12.282 -14.4791 11.7126 
9.86833 -8.36419 13.2106 11.2839 -12.5436 12.3387 11.9892 -13.9115 12.1546 
9.97051 -8.85364 13.1626 10.2095 -9.83609 12.8443 10.6539 -11.0699 12.5685 
11.5809 -13.191 12.5333 12.5476 -14.8762 11.743 10.95 -11.7873 12.6311 
9.92963 -8.04354 13.6843 10.1198 -9.30447 13.2997 10.4332 -10.4389 12.9509 
12.2904 -14.3679 12.1703 10.0492 -8.65383 13.6741 11.2349 -12.4586 12.787 
11.9229 -13.7874 12.6302 10.6843 -11.0891 13.0436 10.3065 -9.85757 13.4177 
10.0315 -7.72467 14.2445 12.7986 -15.2049 11.8314 12.5931 -14.7753 12.1813 
11.5328 -13.0857 13.0089 10.0954 -8.24655 14.1273 10.9473 -11.7389 13.1366 
10.23 -9.21337 13.8603 10.5241 -10.4665 13.5372 12.3172 -14.3473 12.6347 
11.2225 -12.367 13.3143 10.2287 -8.68326 14.2727 10.4349 -9.81996 14.0444 
10.7607 -11.0931 13.6434 11.9029 -13.7085 13.1383 12.9986 -15.4263 11.9742 
10.1815 -7.85316 14.6715 10.1532 -7.35181 14.9109 12.764 -14.923 12.4483 
11.0107 -11.7052 13.7558 11.5304 -12.9817 13.5467 10.4013 -9.18435 14.4773 
10.6598 -10.4564 14.206 12.3736 -14.3518 13.0758 10.2785 -8.18736 14.7705 
13.0332 -15.2171 12.5129 11.2803 -12.292 13.9259 10.8982 -11.0847 14.329 
10.6015 -9.76134 14.6956 11.9265 -13.629 13.6876 10.4016 -8.57256 14.8965 
10.3014 -7.528 15.2923 10.2636 -6.90232 15.5859 13.206 -15.6025 12.2281 
12.7345 -14.7556 13.0696 11.1448 -11.671 14.4407 11.5853 -12.8762 14.1279 
10.8232 -10.3871 14.8802 10.5627 -9.03579 15.0762 10.4022 -7.89243 15.3731 
12.3594 -14.1813 13.7554 13.0348 -15.0364 13.1494 10.3874 -6.37401 16.2828 
10.4077 -7.13789 15.9041 13.268 -15.3614 12.8822 11.4018 -12.2136 14.5717 
11.0612 -11.007 15.0071 10.7535 -9.58083 15.295 10.5281 -8.31143 15.4605 
11.9451 -13.4421 14.3227 13.4014 -15.7 12.613 12.779 -14.6145 13.8177 
10.5095 -7.58122 15.9339 11.3025 -11.5717 15.1022 10.6921 -8.78044 15.6126 
10.9635 -10.1842 15.4891 11.6775 -12.7231 14.7365 12.3892 -14.0006 14.4588 
10.507 -6.44543 16.6027 13.184 -15.0132 13.7365 10.6248 -5.69766 17.2551 
10.6416 -8.02834 15.9943 13.4459 -15.3462 13.4775 10.8809 -9.30801 15.8265 
11.1907 -10.7868 15.6211 11.5409 -12.0692 15.2006 10.5448 -6.84453 16.522 
12.0043 -13.2475 14.917 13.5758 -15.7172 13.1094 12.8976 -14.5463 14.4654 
10.8107 -8.49809 16.1252 10.6226 -7.26578 16.4919 11.0745 -9.87376 16.0385 
11.4214 -11.3317 15.7126 11.7871 -12.5359 15.3122 12.4511 -13.8502 15.0509 
13.3172 -14.9515 14.3851 10.7025 -5.92917 17.4002 10.9049 -4.95001 18.3507 
10.7504 -7.70769 16.5228 13.5964 -15.2674 14.1849 10.9967 -8.99251 16.333 
11.2762 -10.4335 16.1927 11.645 -11.8142 15.7877 10.6826 -6.41405 17.1669 
13.7356 -15.6853 13.6804 12.0745 -13.0374 15.4374 12.9553 -14.4097 15.1025 
10.9809 -5.02629 18.564 10.9182 -8.15268 16.6419 10.7325 -6.86866 17.0565 
11.1745 -9.50707 16.562 11.4846 -10.949 16.295 11.87 -12.2714 15.8562 
13.3697 -14.8125 15.0838 12.45 -13.5889 15.5853 10.8965 -5.55931 18.145 
13.7812 -15.3522 14.5659 11.2363 -3.83926 19.778 10.8499 -7.28297 17.0732 
11.101 -8.61817 16.839 11.3476 -10.0127 16.7457 11.6925 -11.4227 16.3632 
12.8906 -14.1159 15.7126 10.8434 -6.05568 17.8141 12.1157 -12.7313 15.9471 
13.633 -15.0295 15.1774 13.9134 -15.6348 14.4082 11.2316 -4.19406 19.6665 
11.0124 -7.71494 17.1735 11.2702 -9.09714 17.0745 10.8767 -6.42825 17.7049 
11.527 -10.485 16.8705 13.259 -14.4811 15.8281 11.9016 -11.8686 16.4208 
12.4131 -13.2118 16.0929 11.0655 -5.07888 18.8891 13.8802 -15.2532 15.3016 
11.6559 -2.92702 21.2222 11.1936 -8.17222 17.3533 10.971 -6.80928 17.6845 
11.4257 -9.56579 17.2814 13.5694 -14.7713 15.8994 11.7113 -10.9245 16.9561 
12.1233 -12.3035 16.4985 12.7638 -13.6681 16.2903 11.0311 -5.5271 18.6211 
14.0537 -15.5959 15.0858 11.3426 -4.00943 20.1149 11.6987 -3.1092 21.307 
11.1173 -7.22605 17.7481 11.3608 -8.64255 17.5801 11.5833 -10.0019 17.4348 
11.05 -5.91451 18.4592 11.9033 -11.3448 17.0282 13.1326 -14.0796 16.4642 
12.3734 -12.7348 16.6377 13.7656 -14.9233 16.0621 11.2622 -4.45182 19.779 
13.989 -15.2341 15.8833 12.1278 -1.92121 22.6834 11.2899 -7.68094 17.8958 
11.5097 -9.0997 17.7947 11.1232 -6.30401 18.3781 11.7488 -10.4066 17.5508 
12.1104 -11.758 17.1182 12.6754 -13.1796 16.8459 13.4208 -14.3499 16.6336 
11.2245 -4.88833 19.4977 14.1479 -15.5278 15.7878 11.6607 -3.37007 21.2125 
11.4535 -8.1569 18.0971 11.2495 -6.72367 18.3864 11.6579 -9.52306 17.9697 
11.9261 -10.7958 17.655 12.1038 -2.32815 22.5563 11.2349 -5.32232 19.2789 
13.7236 -14.6875 16.6564 12.3466 -12.1879 17.2515 12.9988 -13.5708 17.0849 
11.5362 -3.78941 20.8031 13.9723 -15.0338 16.5428 12.3323 -0.900048 23.5936 
11.4091 -7.18639 18.4859 11.5983 -8.61963 18.2989 11.2956 -5.76101 19.1333 
11.8161 -9.91609 18.1157 12.1249 -11.194 17.7691 12.6192 -12.6234 17.4575 
11.4589 -4.2271 20.4278 13.3461 -13.991 17.2244 12.0028 -2.78683 22.2585 
14.167 -15.3962 16.4159 11.5641 -7.67371 18.648 11.4081 -6.22284 19.0764 
11.7414 -9.04877 18.4759 13.6582 -14.3912 17.2355 11.9912 -10.2996 18.2525 
11.4403 -4.69309 20.1226 12.3371 -1.48585 23.4437 12.3548 -11.6162 17.9171 
12.9491 -13.1164 17.67 11.8576 -3.28788 21.7849 13.9221 -14.7893 17.1318 
12.4793 -0.0413877 24.2122 11.5557 -6.71394 19.1204 11.701 -8.14919 18.8194 
11.4804 -5.19756 19.8945 11.8974 -9.45244 18.6357 11.7498 -3.75196 21.329 
12.1916 -10.6954 18.3988 13.2942 -13.6156 17.7942 12.6306 -12.1106 18.0908 
12.2688 -2.11998 23.1233 14.1363 -15.2042 16.9942 11.5803 -5.71939 19.7771 
11.7006 -7.22474 19.236 11.6926 -4.23618 20.9206 11.8355 -8.59185 18.9764 
13.6063 -14.0829 17.7895 12.0764 -9.85187 18.7954 12.1518 -2.7889 22.6464 
12.4291 -11.1429 18.5573 12.471 -0.756798 24.0483 12.9497 -12.6727 18.257 
13.8687 -14.5246 17.6858 11.7044 -4.73822 20.6329 11.7179 -6.26236 19.7682 
12.0338 -3.43223 22.0901 11.8266 -7.71998 19.3687 12.7204 0.714021 24.8761 
11.9859 -9.01256 19.1273 12.2892 -10.279 18.9651 13.2795 -13.2483 18.345 
12.4375 -1.51094 23.7383 12.7062 -11.6689 18.7151 14.0858 -14.9768 17.5403 
12.3483 -2.42797 23.2019 11.9779 -3.95188 21.6631 11.7784 -5.27799 20.4631 
11.8543 -6.81572 19.8381 13.5778 -13.7766 18.3241 11.9495 -8.17801 19.4934 
12.166 -9.44044 19.2878 12.5435 -10.7602 19.146 13.0091 -12.2744 18.8348 
12.6347 -0.192313 24.5703 13.8282 -14.2566 18.2196 12.5414 -1.34204 24.0228 
12.2911 -3.13664 22.754 11.9731 -4.44517 21.3462 11.8945 -5.85726 20.4044 
11.972 -7.3426 19.9357 12.0889 -8.6151 19.6169 13.3091 -12.9022 18.8803 
13.0147 1.44577 25.6206 12.3894 -9.90426 19.4721 12.8317 -11.3154 19.3091 
14.0379 -14.7379 18.0645 12.7063 -0.391324 24.6731 12.5291 -2.09111 23.6862 
12.2643 -3.73265 22.3645 12.0146 -4.96925 21.1335 13.5802 -13.4805 18.8426 
12.0171 -6.45051 20.4334 12.0848 -7.82146 20.0291 12.2621 -9.06267 19.7591 
13.122 -11.9411 19.4035 12.6647 -10.4264 19.6813 12.9448 0.765815 25.4006 
13.8102 -13.9954 18.7391 12.5247 -2.81077 23.3535 12.7025 -1.08094 24.4281 
12.2598 -4.26473 22.0405 12.0942 -5.54395 21.028 12.1278 -7.01099 20.5028 
12.2122 -8.27061 20.1222 13.3869 -12.5894 19.4127 12.4873 -9.55269 19.9417 
12.974 -11.0182 19.8746 13.338 2.25493 26.4234 14.0052 -14.5044 18.5705 
12.9103 0.0326338 25.1846 12.5277 -3.498 23.0248 12.7188 -1.76394 24.1669 
12.2775 -4.78707 21.7984 13.6209 -13.1982 19.356 12.1917 -6.14488 21.0194 
12.2351 -7.51222 20.5751 12.3734 -8.72637 20.2365 13.2636 -11.6618 19.9767 
12.7775 -10.1085 20.174 13.1947 1.35247 26.0105 13.8215 -13.7417 19.2546 
12.9001 -0.716953 24.9302 12.7409 -2.48329 23.8965 12.5354 -4.11457 22.7199 
12.3202 -5.33772 21.6554 12.2922 -6.71889 21.0671 12.3547 -7.97256 20.6461 
13.5012 -12.3112 19.9649 12.5906 -9.22533 20.4014 13.1083 -10.7347 20.4133 
13.9933 -14.2839 19.0593 13.6054 3.04667 27.0514 13.1207 0.474735 25.6923 
12.9211 -1.43504 24.6766 12.7637 -3.23503 23.6268 13.698 -12.9272 19.8859 
12.546 -4.67141 22.4707 12.3863 -5.91211 21.6144 12.3971 -7.23357 21.1283 
12.5045 -8.42958 20.7347 13.4044 -11.4007 20.5591 12.8825 -9.79452 20.6381 
13.4242 1.9519 26.5664 13.8652 -13.4875 19.784 13.1072 -0.354079 25.4386 
12.9519 -2.17358 24.4204 12.7854 -3.94486 23.369 12.5663 -5.20943 22.3074 
12.4725 -6.46869 21.6439 12.5139 -7.70149 21.188 13.6261 -12.0497 20.555 
12.7077 -8.92332 20.8719 13.224 -10.4378 20.9161 14.0034 -14.0762 19.5306 
13.7997 3.85994 27.4587 13.3114 0.960866 26.1539 13.1322 -1.12769 25.2037 
12.9805 -2.96021 24.178 12.8032 -4.56452 23.1442 13.7943 -12.6576 20.4576 
12.6081 -5.74614 22.2445 12.5753 -6.9759 21.6979 12.6554 -8.15695 21.2574 
13.5249 -11.1208 21.123 12.9858 -9.48389 21.0889 14.0303 -13.8729 19.9815 
13.3203 -10.122 21.374 12.8421 -8.63782 21.3646 12.6919 -7.44008 21.7518 
12.6807 -6.26371 22.2587 13.2944 0.0370087 25.8969 13.1655 -1.89559 24.9528 
12.8209 -5.11327 22.9872 13.0086 -3.7398 23.9633 13.6345 2.56534 27.0718 
13.7372 -11.771 21.1666 13.9328 -13.218 20.352 13.0948 -9.17657 21.5424 
13.6191 -10.8074 21.6269 12.8279 -7.88867 21.8074 12.7801 -6.74151 22.3042 
12.8556 -5.62262 22.9206 13.8848 -12.3585 21.0856 13.0369 -4.42537 23.7825 
13.1903 -2.69809 24.7058 13.3327 -0.809164 25.7064 13.4844 1.47529 26.5786 
13.9269 4.64349 27.7061 14.0664 -13.6418 20.455 13.4035 -9.7925 21.7964 
12.9976 -8.35459 21.8853 13.8258 -11.4561 21.7427 12.8966 -7.18464 22.3502 
12.923 -6.09907 22.9276 13.0673 -5.00135 23.6586 13.2122 -3.50974 24.5027 
13.3765 -1.62117 25.4891 13.4497 0.463776 26.2824 13.9984 -12.8799 20.9945 
13.8185 3.24546 27.5085 13.2178 -8.86909 22.0144 13.6894 -10.4633 22.0582 
13.0277 -7.61573 22.3919 13.0212 -6.53718 22.9659 13.1129 -5.50221 23.6115 
[...]
POINT_DATA 724
VECTORS velocity double
0.103968 -0.011523 -0.381807 0.140224 -0.029423 -0.368241 -0.0253646 0.0911079 -0.333618 
0.0709581 0.0252785 -0.277035 -0.124977 0.163584 -0.31499 0.0165589 0.00196357 -0.356576 
-0.00743001 0.0592255 -0.184188 -0.174893 0.17524 -0.338791 0.0846612 -0.0760136 -0.376836 
-0.0810424 0.0833575 -0.319579 0.0677843 -0.0695127 -0.333415 -0.00398208 -0.00355425 -0.24526 
-0.0231372 0.00740735 -0.157117 -0.144785 0.132206 -0.310867 -0.185177 0.139874 -0.384839 
-0.00172927 -0.0525235 -0.329611 -0.0744239 0.0323249 -0.169456 0.0459489 -0.133714 -0.326594 
-0.166451 0.12578 -0.329181 -0.089037 0.0306229 -0.278819 0.0197659 -0.113606 -0.19655 
-0.173991 0.0846073 -0.427977 -0.00101627 -0.0937514 -0.245648 -0.0967503 0.00870287 -0.141734 
-0.157076 0.0810759 -0.367202 -0.132653 0.0682636 -0.256911 -0.0172605 -0.107982 -0.258899 
-0.090943 -0.00659986 -0.125236 0.0904061 -0.248003 -0.274774 0.0233489 -0.190448 -0.23658 
-0.16199 0.0480559 -0.441705 -0.128039 0.0443926 -0.274369 -0.0785073 -0.0392358 -0.182848 
-0.0577633 -0.0948724 -0.178203 -0.119049 0.0115266 -0.356522 -0.00794598 -0.160171 -0.145977 
-0.139537 0.0296217 -0.0679276 -0.0129476 -0.174489 -0.132149 -0.0917665 -0.0175255 -0.149667 
-0.154789 0.0393178 -0.420122 0.161289 -0.356891 -0.360547 0.0248896 -0.232165 -0.258373 
-0.0775855 -0.0501698 -0.0126298 -0.102507 -0.0228898 -0.371615 0.0299664 -0.259837 -0.0864165 
-0.0748527 -0.0388623 -0.208942 -0.0406962 -0.123191 -0.0341301 -0.0998316 -0.0641096 -0.11369 
0.0261267 -0.239055 0.0106804 -0.0537448 -0.0767556 -0.268133 -0.0379623 -0.0971502 -0.0386217 
0.022834 -0.25289 0.0415307 -0.134604 0.0478668 0.0591388 0.209183 -0.416135 -0.419418 
-0.097665 -0.0207689 -0.347255 -0.164409 0.0907036 -0.363286 0.0462352 -0.272116 -0.271752 
0.0773098 -0.340351 0.0986331 -0.017177 -0.109935 0.139175 -0.0171345 -0.117534 -0.125154 
0.00656616 -0.188509 0.0934489 -0.105789 -0.0215635 -0.0170055 -0.0448426 -0.0892841 -0.283905 
0.132967 -0.356754 -0.340554 0.0995389 -0.324737 0.175854 0.0727667 -0.312219 0.163533 
-0.00019811 -0.141364 0.0136311 -0.0829839 0.0533303 0.206892 -0.00304957 -0.14185 -0.199612 
-0.0983199 0.0192194 -0.289651 -0.200406 0.218379 -0.311333 0.244059 -0.441457 -0.450201 
-0.0156605 -0.147136 -0.110206 0.141598 -0.403981 0.202339 0.0750683 -0.188377 0.260646 
0.0232369 -0.190488 0.098388 0.0161703 -0.161997 -0.101896 -0.0324435 -0.0831521 -0.235293 
-0.0878331 0.0743966 0.175941 0.0736633 -0.230025 -0.16772 -0.230898 0.353297 -0.27447 
-0.125372 0.122514 -0.25189 0.174448 -0.347693 -0.308867 0.179207 -0.39906 0.238345 
0.0862032 -0.299268 0.131324 0.00479434 -0.139592 -0.0283387 0.0149131 -0.158526 -0.173881 
0.0161784 -0.0042452 0.308321 0.261645 -0.418819 -0.420012 -0.0177389 -0.0145636 0.0975879 
-0.0445809 -0.0252154 -0.204441 0.165851 -0.405765 0.145031 0.0271381 -0.177903 -0.116914 
-0.00470239 -0.126897 -0.00420105 0.167746 -0.289338 0.269478 -0.0278001 0.0952592 0.283078 
-0.183664 0.303024 -0.238211 0.0938361 -0.148922 -0.0249821 -0.192435 0.353371 -0.189175 
0.00967696 -0.130465 -0.16039 0.188745 -0.261557 -0.164116 -0.00396205 -0.126151 -0.0953019 
0.0369059 -0.197125 -0.00459857 0.215743 -0.434047 0.155427 -0.128448 0.190265 -0.218983 
0.10551 -0.110191 0.278375 0.271695 -0.352241 -0.315943 0.0152482 0.0265711 0.187699 
0.02168 -0.164027 -0.133037 -0.0648845 0.0573063 -0.188985 -0.0459489 -0.0537019 -0.115505 
0.115173 -0.312841 -0.0035196 0.215061 -0.367841 0.16331 0.0218348 0.0438457 0.247203 
0.118917 -0.0968748 0.0869041 -0.150329 0.298213 -0.169901 -0.138788 0.284208 -0.0635813 
-0.0131642 -0.0592825 -0.159408 0.20914 -0.185705 -0.00661661 -0.0155598 -0.108846 -0.142837 
-0.0444643 -0.0529995 -0.138624 0.180494 -0.389644 0.00407042 -0.126128 0.244261 -0.185479 
0.289704 -0.275957 -0.171763 0.156899 -0.216381 0.164137 0.0304428 0.0158362 0.177825 
-0.10874 0.259685 -0.0396306 0.00202315 -0.111612 -0.147789 -0.0837794 0.145361 -0.17764 
-0.0741914 -0.00658862 -0.182072 0.00721424 -0.133697 -0.141124 0.204039 -0.387395 0.0163134 
0.119379 -0.0939077 0.115007 0.0633935 -0.0522685 0.141784 -0.0974581 0.234116 -0.0830206 
0.261885 -0.20533 0.0189829 -0.12809 0.429486 0.0611126 -0.0433028 0.0447551 -0.162254 
-0.0286339 -0.0769262 -0.166565 -0.106511 0.0565881 -0.211066 0.07573 -0.235393 -0.126564 
0.023825 -0.0159443 0.10199 -0.0901603 0.217384 -0.122739 0.173497 -0.299513 0.0243658 
0.194044 -0.172766 0.0760593 0.327333 -0.241583 -0.0351766 -0.100806 0.379669 0.0462351 
-0.0246774 -0.0224737 -0.157595 -0.0858661 0.0193329 -0.202945 -0.0717446 0.174996 -0.134371 
-0.0944423 0.0433623 -0.209822 0.0651109 -0.0879287 0.0671509 0.12552 -0.298038 -0.105944 
0.0971574 -0.161049 0.0195011 -0.0717475 0.23631 -0.00762025 0.274315 -0.247168 0.0456818 
-0.0813739 0.463238 0.260431 -0.0428533 -0.0205805 -0.174511 -0.0500915 0.115516 -0.137948 
-0.13058 0.104796 -0.222282 0.139814 -0.178647 0.0476755 -0.0522033 -0.0209874 -0.18601 
0.133801 -0.28852 -0.0865286 0.0266665 -0.0663091 0.00716565 -0.0516978 0.189025 -0.0308816 
0.363084 -0.286766 0.015357 -0.0827353 0.417074 0.0787609 -0.0568085 0.450772 0.233788 
-0.0377279 0.0607681 -0.144803 -0.0880511 0.0442052 -0.201448 -0.143202 0.13651 -0.209395 
-0.0360633 0.155124 -0.0503867 -0.00331907 -0.0931613 -0.152291 0.0168653 -0.0681854 0.00993385 
0.0940295 -0.205622 -0.0700873 0.191571 -0.24091 0.0356249 -0.0639009 0.341091 0.0512883 
0.288671 -0.307718 0.0328881 0.0181329 0.312948 0.424674 -0.0495435 0.0445829 -0.164976 
-0.129348 0.115856 -0.208886 -0.0234586 0.120353 -0.0680884 -0.128697 0.121371 -0.17232 
0.0290743 -0.131647 -0.115736 0.0276623 -0.0904994 -0.0450461 0.0517438 -0.118239 0.0230718 
-0.0396344 0.257595 0.0378844 0.374672 -0.358456 0.0258362 -0.0457601 0.44507 0.188011 
-0.0838587 0.0760526 -0.191099 -0.0190741 0.088067 -0.0892773 -0.147745 0.152921 -0.183947 
-0.0996685 0.0841236 -0.122323 0.0364717 0.344423 0.366685 -0.0138668 0.18235 0.0283933 
0.13129 -0.205931 0.039761 0.0291657 -0.108655 -0.0757242 -0.0118847 -0.021954 0.000326228 
-0.0477131 0.433566 0.123305 0.232687 -0.29812 0.0435864 -0.090088 0.21416 0.166093 
-0.0332436 0.0767611 -0.122431 -0.118168 0.119053 -0.197742 0.00687282 0.12314 0.0148429 
-0.14373 0.153689 -0.134156 -0.0690548 0.0516834 -0.067245 -0.00387104 -0.0225706 -0.0242377 
-0.0370669 0.380427 0.0841183 0.00589585 -0.0388439 0.0570646 0.0324934 0.365562 0.298726 
0.341768 -0.379086 0.0425528 -0.0663453 0.0953701 -0.162767 0.0146784 0.083626 -0.0101541 
-0.135231 0.13902 -0.171718 0.070982 -0.120253 0.0920962 -0.124718 0.13377 -0.0713312 
-0.0148851 0.293253 0.0670383 0.00228791 0.269253 0.24398 -0.0510514 0.0540688 -0.0132663 
-0.0342329 0.0615665 0.0476489 0.00910755 0.386721 0.211037 0.164651 -0.227181 0.0972695 
-0.251212 0.268795 -0.251478 0.000306873 0.0721584 -0.0542249 -0.100546 0.119474 -0.185946 
0.0128204 0.193703 0.0598434 -0.132757 0.130155 -0.118765 -0.00546305 0.387982 0.138058 
-0.0996661 0.114523 -0.00814241 -0.0202277 0.0596755 0.126694 -0.0515598 0.104317 0.0359849 
0.0650719 0.310293 0.295015 0.278202 -0.335098 0.0902984 0.0315287 0.11417 0.0445611 
-0.036349 0.0885449 -0.113924 -0.00385248 0.34814 0.0912891 -0.119794 0.122835 -0.175572 
0.0345721 -0.0206029 0.178279 -0.115128 0.103219 -0.0519571 0.0741685 0.319937 0.269045 
-0.0787987 0.122281 0.0393926 -0.12815 0.249975 -0.0528794 -0.0560379 0.163531 0.0937585 
0.112533 -0.131794 0.188471 0.0113163 0.268198 0.0695223 0.0246628 0.0753712 0.0030825 
0.0489899 0.316499 0.182659 -0.0773367 0.107855 -0.162981 -0.299365 0.439421 -0.485549 
-0.120346 0.0999231 -0.134216 -0.0898836 0.0801714 0.00994746 -0.032192 0.14992 0.176336 
0.00813175 0.277093 0.140178 -0.0701771 0.173276 0.0604101 0.212517 -0.252183 0.173153 
0.095876 0.292407 0.244292 0.0309121 0.300787 0.112155 0.0270093 0.175972 0.0541837 
-0.0117709 0.0771113 -0.0657499 0.020445 0.0633233 0.251935 -0.104663 0.105698 -0.179236 
-0.104365 0.0594088 -0.0738488 -0.0684154 0.093699 0.0397447 -0.0633639 0.226951 0.0848114 
-0.219926 0.305062 -0.308612 0.0860548 -0.0479486 0.284585 -0.0178987 0.271831 0.0414523 
0.0996816 0.250485 0.206891 0.0239869 0.26034 0.0680392 0.0240721 0.108953 0.0209627 
-0.0589882 0.090218 -0.134171 -0.112957 0.077208 -0.16101 -0.0330692 0.205886 0.163134 
-0.207623 0.547617 -0.309092 -0.0779283 0.0251259 -0.0176823 -0.0595889 0.160554 0.0256492 
0.166528 -0.167693 0.274414 -0.176318 0.296307 -0.261917 0.0858638 0.276364 0.167274 
0.078587 0.206467 0.13594 0.0208605 0.198664 0.0385667 0.0209238 0.112253 0.269993 
-0.00875584 0.0855665 -0.0416267 -0.0951117 0.0864856 -0.174331 -0.102609 0.0301975 -0.117409 
-0.0528039 0.228353 0.0185806 -0.0533051 0.0384571 -0.00267719 -0.215094 0.45328 -0.359976 
0.0810821 0.000351187 0.344159 0.126408 0.219602 0.197061 -0.0561977 0.26747 -0.0736825 
0.0521126 0.176397 0.0732817 0.00806418 0.139563 0.00553434 -0.057218 0.0835327 -0.112624 
-0.112253 0.0594154 -0.180364 -0.0241347 0.215242 0.0895712 -0.0772929 -0.0107372 -0.0702855 
-0.04123 0.116832 -0.0410038 -0.0736583 0.473507 0.0573026 0.1459 -0.111778 0.362476 
-0.173154 0.33897 -0.281902 0.120545 0.12559 0.166694 0.0547456 0.260748 0.0727756 
0.0252151 0.150038 0.0261774 0.0289542 0.121518 0.22226 -0.0256373 0.106648 -0.045137 
-0.097966 0.0734855 -0.163345 -0.109496 0.0158727 -0.158072 -0.0332529 0.191684 -0.0662119 
-0.0476802 0.00289354 -0.0594895 -0.11561 0.471767 -0.133861 0.088094 0.00689686 0.343178 
-0.0824578 0.265993 -0.124921 0.123862 0.212388 0.157196 0.0871704 0.0636583 0.108856 
-0.0061603 0.12561 -0.0139492 -0.0725347 0.0916742 -0.104172 -0.120742 0.0475332 -0.184889 
-0.00891763 0.185001 -0.00533447 -0.087679 -0.0208301 -0.12338 -0.0264653 0.0883711 -0.0978701 
0.144205 -0.0968678 0.410129 -0.0125094 0.368706 0.235958 -0.113746 0.36573 -0.156024 
0.0245673 0.240059 0.0286099 0.140145 0.0923382 0.187117 0.038654 0.0979106 0.133105 
0.0420053 0.0476391 0.0494798 -0.0474413 0.109815 -0.0569884 -0.113305 0.0733376 -0.150556 
-0.12354 0.0119644 -0.180206 -0.012319 0.156286 -0.117103 -0.0529008 -0.00100291 -0.108641 
-0.032532 0.404836 0.06986 0.0967046 -0.0192883 0.285069 -0.0550283 0.260249 -0.034818 
0.1056 0.20637 0.134239 0.114531 -0.024439 0.171078 -0.00702048 0.055302 -0.00155532 
-0.0936266 0.0982363 -0.101087 -0.137333 0.0463753 -0.175627 0.0079279 0.139648 -0.0645672 
-0.104995 -0.0125041 -0.158558 -0.0178041 0.0911531 -0.123812 0.150472 -0.116739 0.409324 
-0.0286884 0.386071 0.197247 -0.0468904 0.36852 -0.0114493 0.0295069 0.209655 0.109082 
0.135764 0.101739 0.196121 0.0653275 -0.0671617 0.122569 0.0453047 0.0568991 0.0525747 
-0.0572367 0.0687492 -0.0452239 -0.131618 0.0803346 -0.136195 -0.141838 0.0180852 -0.180465 
0.00717223 0.148273 -0.10962 -0.0658843 0.0172631 -0.139446 0.153865 -0.152433 0.370944 
-0.0161118 0.112777 -0.127132 -0.124333 0.0063125 -0.169547 -0.153443 0.0563331 -0.157793 
-0.103175 0.0770474 -0.0825783 -0.00270838 0.253612 0.100778 0.0964544 0.187976 0.193613 
0.00890529 -0.052366 0.0655446 0.120392 -0.0464887 0.222826 0.0144759 0.315027 0.181615 
0.0242445 0.110284 -0.0473238 0.0972803 -0.0594634 0.200669 -0.082128 0.0427264 -0.151308 
0.0227666 0.163813 -0.0750899 -0.15667 0.0350906 -0.166595 -0.136821 0.0754517 -0.112547 
-0.0443059 -0.0180476 0.0140867 0.0473822 0.0230457 0.0373131 0.0795274 -0.13442 0.204684 
0.120318 0.126705 0.227482 0.0687195 0.177116 0.272466 0.00396831 0.335221 0.090604 
-0.104746 0.445443 -0.0285525 0.146685 -0.186947 0.309763 -0.021547 0.132651 -0.124572 
-0.138687 0.0316039 -0.164395 0.0406432 0.10973 0.0187221 -0.154435 0.0670558 -0.135183 
-0.087068 0.0147198 -0.0303165 0.0298436 -0.141917 0.154948 0.104781 -0.00276069 0.247246 
0.113293 0.158922 0.347694 0.0390157 0.248725 0.181503 0.0827831 -0.0846329 0.140626 
0.0198581 0.298579 0.190713 -0.0957268 0.0667177 -0.15295 0.0308609 0.181345 -0.0542993 
-0.155424 0.0592809 -0.150961 -0.114757 0.0404448 -0.0702193 -0.0161686 -0.107781 0.0954876 
0.0723669 -0.116196 0.24182 0.051576 0.0131648 0.104165 0.111871 0.147796 0.314161 
0.11107 0.154707 0.397415 0.0382236 0.268781 0.15145 -0.218155 0.47981 -0.384047 
0.123796 -0.205362 0.250167 -0.0313719 0.141049 -0.12664 -0.138034 0.0626863 -0.159525 
0.0548202 0.124729 0.0656111 -0.127461 0.0605599 -0.106982 -0.0502218 -0.0610261 0.0349794 
0.0359133 -0.154843 0.198434 0.0809283 0.0765115 0.265828 0.147883 0.131221 0.510744 
0.0626189 0.236475 0.199591 0.068283 -0.0910736 0.174656 -0.0202111 0.366714 0.0731464 
-0.0988096 0.090159 -0.15864 0.0301109 0.185614 -0.0583472 -0.126852 0.077492 -0.139425 
-0.0695481 -0.0126561 -0.0249906 0.00336276 -0.137009 0.131347 0.0611658 0.0212626 0.18144 
0.0472826 -0.0264549 0.231081 0.135444 0.141851 0.431593 0.123067 0.154624 0.445404 
0.0505124 0.222071 0.167666 0.0927224 -0.199737 0.246179 -0.308378 0.468248 -0.721684 
-0.0391209 0.141627 -0.139725 -0.112678 0.0946748 -0.164572 0.0630471 0.136671 0.0666508 
-0.0762929 0.0338423 -0.0820515 -0.0185751 -0.0924335 0.0539978 0.0203944 -0.0838532 0.177502 
0.065878 0.152509 0.307385 0.0753104 0.203219 0.186698 0.178032 0.111978 0.593888 
0.0648032 -0.0826518 0.262813 -0.119474 0.429363 -0.217883 -0.082464 0.117061 -0.177016 
0.0235548 0.174759 -0.0814582 -0.0735024 0.076141 -0.132631 -0.0277837 -0.0384961 -0.0234611 
0.000179407 -0.0846156 0.0981781 0.0712942 0.0335114 0.207893 0.0177635 0.0941526 0.205126 
0.147732 0.149503 0.551037 0.134393 0.136075 0.366671 0.0320494 0.268275 0.119137 
0.0718198 -0.179251 0.316365 -0.0357042 0.144537 -0.166548 -0.0624723 0.111962 -0.172758 
-0.26209 0.384932 -0.700704 0.0640557 0.136453 0.0328035 -0.0263985 0.0155888 -0.0909516 
-0.010545 -0.0522663 0.00528976 -0.00933507 0.0412626 0.120503 0.0697473 0.199245 0.369037 
0.19099 0.0968167 0.582252 0.0729812 0.160946 0.152144 0.0700948 -0.0704215 0.321042 
-0.136355 0.415186 -0.30837 0.0180357 0.157047 -0.117441 -0.0425648 0.138582 -0.196312 
-0.0178199 0.0644868 -0.141564 -0.00979836 -0.00881813 -0.0828984 0.0776425 0.0415023 0.180195 
-0.0227115 0.029192 0.0241088 -0.000955395 0.20265 0.19351 0.169594 0.140563 0.582792 
0.117579 0.123117 0.252417 0.0674792 -0.158865 0.39446 -0.0129483 0.151462 -0.193271 
0.0334222 0.265436 0.0758508 0.0595803 0.122248 -0.0182579 -0.00485495 0.104225 -0.172655 
0.00120663 0.0314087 -0.145799 -0.132572 0.322153 -0.38778 -0.0248025 0.0445872 -0.0793133 
0.186377 0.0780627 0.501151 -0.0388068 0.179134 0.0628105 0.0866433 0.215691 0.40528 
0.0766687 -0.0607482 0.315872 0.0230136 0.141765 -0.151905 -0.191684 0.367066 -0.487402 
0.0106101 0.130364 -0.183739 0.100078 0.0962733 0.159883 0.0188212 0.0607678 -0.169298 
0.0782263 0.0395989 0.119364 -0.0143676 0.0631513 -0.166213 0.180562 0.127577 0.551976 
-0.0519365 0.166222 -0.0514562 0.000672811 0.266536 0.193933 0.0708664 -0.145168 0.41525 
-0.0110535 0.34687 -0.0529829 0.0274108 0.136582 -0.173035 0.0551889 0.0989372 -0.0669525 
0.0384305 0.0764817 -0.153089 0.169938 0.0529728 0.382895 0.00702603 0.0682443 -0.207106 
0.102814 0.215723 0.384742 -0.0474751 0.15896 -0.151126 -0.0492818 0.277473 0.0284752 
-0.0338105 0.356913 -0.132024 0.0795641 -0.0562659 0.257448 0.0829787 0.106022 0.104042 
0.0442155 0.115945 -0.136239 0.0556887 0.0784496 -0.109563 -0.14976 0.275888 -0.400852 
0.181122 0.104312 0.484941 0.0333721 0.0560379 -0.18519 0.0733137 0.0243075 0.0527691 
-0.0273306 0.136986 -0.214374 0.01799 0.280799 0.171599 -0.064627 0.264191 -0.0908985 
0.0732158 -0.136674 0.366844 -0.0595815 0.356233 -0.190571 0.0583771 0.0663591 -0.0702775 
0.148272 0.0209742 0.253952 0.0673678 0.0667774 -0.0554825 0.0576905 0.0306869 -0.108361 
0.00258648 0.0938297 -0.220997 0.112991 0.203317 0.324329 -0.0552403 0.226854 -0.165607 
-0.0328701 0.298994 0.00479966 0.0257496 0.454605 0.0123097 0.075553 -0.0621029 0.174664 
0.053743 0.207988 0.042111 0.0717804 0.0403269 -0.00290746 0.0750199 -0.001973 -0.00302651 
0.0662877 -0.00475814 0.0219938 0.173688 0.0600053 0.39243 -0.0721089 0.212032 -0.200699 
0.0324332 0.0395681 -0.169923 -0.0296164 0.163932 -0.189525 0.0382775 0.264999 0.114422 
-0.0479251 0.272083 -0.0964121 -0.0792408 0.291317 -0.23777 0.0686282 -0.134163 0.271434 
0.117112 0.00572806 0.121272 0.0690247 -0.00127028 0.0442879 0.0829298 -0.0372086 0.101412 
0.0549632 -0.0154603 -0.0736273 0.00146259 0.0882317 -0.170045 0.121808 0.161201 0.26681 
-0.0381515 0.209768 -0.134731 -0.00883905 0.272111 -0.0428107 0.0645269 0.556691 0.0932991 
0.0628347 -0.0842354 0.118629 0.0220144 0.310494 -0.0354335 0.0611885 -0.0540535 0.0886829 
0.0675282 -0.0675176 0.0479405 0.0807266 -0.072773 0.184449 0.0282706 0.0173864 -0.123187 
0.153392 -0.0148535 0.244722 -0.0153487 0.126783 -0.123243 -0.0243957 0.23009 -0.118966 
0.0542785 0.229157 0.0618098 -0.0140226 0.232363 -0.0478907 -0.0494201 0.197658 -0.147315 
0.0515622 -0.144159 0.188763 0.0651153 0.160629 0.0233965 0.0704034 -0.114853 0.170338 
0.0458737 -0.0420434 -0.0546666 0.0101858 0.0429546 -0.0847153 0.0686206 -0.106737 0.232269 
-0.0182079 0.154671 -0.124582 0.129728 0.0720275 0.230015 0.00822218 0.236531 -0.089558 
0.0898222 0.632571 0.139253 0.0493829 -0.121707 0.188261 -0.0115064 0.245977 -0.0799093 
0.0532647 -0.0946839 0.0393778 0.0309221 -0.0236492 -0.0436952 0.0650847 -0.154774 0.272638 
-4.68954e-05 0.0618633 -0.0812662 0.108141 -0.0218443 0.0673357 -0.0106566 0.19388 -0.152466 
0.0725818 0.155721 0.07646 0.00242345 0.211704 0.000868697 0.0303736 -0.172122 0.22793 
0.053755 -0.179056 0.333614 0.0431032 -0.0674616 -0.0101934 0.0414375 0.294486 -0.0011231 
0.0516273 -0.145577 0.15529 0.0218609 -0.030795 -0.0145581 -0.00855857 0.116869 -0.139578 
0.0272976 0.182753 -0.0541795 0.123431 -0.034731 0.137827 0.103229 0.671292 0.161786 
0.0386121 -0.189796 0.334432 0.00941828 0.126453 0.0142747 0.0461171 -0.100506 0.0309703 
0.0438323 -0.192467 0.278045 0.0400321 -0.101096 0.0457482 0.00676713 0.0178415 -0.0744284 
0.00661973 0.156948 -0.105494 0.0615217 0.196579 0.00698464 0.0918056 0.051122 0.116851 
0.0291998 0.304769 0.0617718 0.0407168 -0.140158 0.106446 0.0492064 -0.131921 0.0753967 
0.0186847 -0.219995 0.361753 0.0456859 0.167868 0.0776719 0.0284937 -0.0901206 0.0193394 
0.00492917 0.0945637 -0.0924826 0.0537765 0.116101 0.0575259 0.0298026 -0.224018 0.357522 
0.0825911 0.00457936 0.00759614 0.110482 0.6876 0.174327 0.0263348 0.211719 0.0683675 
0.0296678 -0.185196 0.207608 0.0486031 -0.130369 0.0753869 0.0489953 -0.184683 0.112394 
0.0159841 0.00486085 -0.0342256 0.0342277 0.12863 0.0378195 0.0751244 0.262057 0.0906513 
0.0870901 -0.024641 0.0518164 0.040842 -0.129422 0.0805706 0.00968481 -0.241446 0.376185 
0.0606035 -0.235274 0.171057 0.0583331 0.0784426 0.146306 0.0348728 -0.104868 0.0546516 
0.0309902 0.0962002 0.0549269 0.0651068 0.0496569 0.0828995 0.0156952 -0.212779 0.268594 
0.0659576 0.210878 0.0259781 0.112713 0.68723 0.179669 0.0286004 -0.1468 0.116635 
0.0435416 0.316724 0.100979 0.0602513 -0.227736 0.177833 0.0559467 -0.220344 0.155529 
0.0497185 0.111194 0.122244 0.0583442 0.0472741 -0.0214456 0.0377086 0.029408 0.0950344 
0.105365 0.12774 0.231844 0.0514523 -0.187017 0.149865 0.00268995 -0.213102 0.263085 
0.0716382 -0.311329 0.239944 0.10534 0.243727 0.170121 0.051611 0.0269318 0.0136537 
0.0495039 0.127894 0.178893 0.0503013 -0.0674838 0.150102 0.0175859 -0.15453 0.137259 
0.0424086 0.175443 0.117243 0.11168 0.674289 0.181719 0.0388288 -0.150576 0.120527 
0.0751757 -0.341374 0.276947 0.118993 0.0505663 0.294753 0.0592402 0.182302 0.024282 
0.0408397 0.0851141 0.0768478 0.0658573 -0.18772 0.216052 0.0576931 0.10231 0.237299 
0.0657157 -0.299136 0.255324 0.0135069 -0.139884 0.122619 0.107956 0.651817 0.180996 
0.0483364 0.21055 0.131556 0.151272 0.178109 0.324346 0.0802885 -0.309099 0.285553 
0.0342851 0.100449 -0.0256802 0.0415034 0.138152 0.164689 0.0685275 0.0329871 0.283315 
0.0402879 -0.173603 0.153199 0.130377 0.0179282 0.335681 0.0861638 -0.390236 0.333521 
0.0209333 0.09735 -0.000223508 0.115356 0.233906 0.21021 0.0787407 -0.0785873 0.312584 