# vtk DataFile Version 3.0
vtk output
ASCII
DATASET POLYDATA
POINTS 724 float
10.7452 -11.2634 11.6139 11.0973 -12.0789 11.6059 10.4008 -10.4544 11.7542 
11.4144 -12.8223 11.6734 10.1561 -9.8157 11.9974 10.5936 -10.9005 11.9359 
11.7238 -13.4808 11.7263 9.98991 -9.27548 12.3459 10.8939 -11.5972 11.929 
10.3573 -10.3202 12.1555 11.1844 -12.2711 11.9916 11.4691 -12.9116 12.0426 
12.0075 -14.0081 11.7424 10.1757 -9.80171 12.4289 9.90591 -8.81065 12.7871 
10.638 -11.0085 12.2562 11.7167 -13.407 12.1566 10.9472 -11.7421 12.299 
10.0603 -9.33804 12.8037 10.3993 -10.3917 12.5343 12.2776 -14.4528 11.7573 
9.90665 -8.38303 13.305 11.284 -12.5216 12.3926 12.0109 -13.9117 12.1866 
10.0051 -8.87151 13.243 10.2388 -9.85071 12.9003 10.6577 -11.0454 12.6253 
11.6015 -13.1887 12.5607 12.5279 -14.8211 11.8048 10.9443 -11.7439 12.6829 
9.96547 -8.05457 13.7821 10.1481 -9.31409 13.3595 10.4505 -10.4296 12.991 
12.3032 -14.3452 12.211 10.0756 -8.65649 13.7526 11.236 -12.4215 12.8191 
11.9542 -13.7923 12.6458 10.687 -11.0498 13.0728 10.3269 -9.85329 13.4503 
10.0661 -7.73432 14.3381 12.7636 -15.1264 11.9116 12.5878 -14.7232 12.2394 
11.5504 -13.0737 13.012 10.1184 -8.24211 14.21 10.9401 -11.68 13.156 
10.2468 -9.20478 13.9064 10.5332 -10.4387 13.5451 12.3391 -14.331 12.6611 
11.2161 -12.312 13.3129 10.241 -8.66677 14.3328 10.4435 -9.79812 14.0533 
10.7557 -11.0365 13.635 11.9338 -13.718 13.1263 12.9532 -15.3349 12.0671 
10.204 -7.84999 14.7496 10.1903 -7.37325 14.9926 12.7539 -14.8623 12.5089 
10.9935 -11.6287 13.7352 11.5351 -12.9562 13.5174 10.4055 -9.1585 14.5059 
10.6585 -10.4139 14.1858 12.3968 -14.3447 13.0812 10.2894 -8.16899 14.835 
13.0041 -15.1384 12.5882 11.2584 -12.218 13.8888 10.8823 -11.015 14.2933 
10.6016 -9.72948 14.693 11.947 -13.6403 13.6436 10.4031 -8.54219 14.9425 
10.3244 -7.53424 15.3584 10.3084 -6.95157 15.6564 13.1526 -15.5055 12.3274 
12.7374 -14.7214 13.0952 11.114 -11.5807 14.3967 11.5701 -12.833 14.072 
10.8177 -10.3438 14.858 10.5596 -9.00021 15.1001 10.411 -7.87627 15.4274 
12.3797 -14.1959 13.7189 13.018 -14.9847 13.1872 10.4387 -6.4526 16.345 
10.4367 -7.16674 15.9619 13.2293 -15.2845 12.9503 11.3629 -12.1233 14.5201 
11.042 -10.9401 14.9774 10.7523 -9.5494 15.3015 10.5261 -8.27808 15.5012 
11.9445 -13.4415 14.2559 13.3435 -15.6077 12.7054 12.7825 -14.609 13.7983 
10.5211 -7.57818 15.9816 11.2665 -11.4817 15.0701 10.6866 -8.74168 15.64 
10.964 -10.1552 15.4894 11.6416 -12.6572 14.678 12.3974 -14.0214 14.3976 
10.5482 -6.51327 16.6569 13.1624 -14.9787 13.7433 10.6679 -5.77688 17.2979 
10.641 -8.00172 16.0321 13.4034 -15.2874 13.5142 10.8817 -9.27997 15.8479 
11.1822 -10.7428 15.6218 11.494 -11.9721 15.1669 10.5742 -6.88807 16.5723 
11.9833 -13.2231 14.8558 13.5151 -15.6389 13.1791 12.8938 -14.5505 14.4254 
10.8066 -8.46286 16.156 10.6384 -7.28066 16.5359 11.0845 -9.86181 16.0639 
11.3965 -11.2632 15.7139 11.7404 -12.4527 15.2771 12.4482 -13.8605 14.9965 
13.2897 -14.9285 14.3668 10.7364 -5.99636 17.4389 10.9362 -5.01432 18.365 
10.7548 -7.69687 16.5601 13.5491 -15.2249 14.187 11.0004 -8.96877 16.3651 
11.2858 -10.4219 16.2234 11.6062 -11.7286 15.7881 10.7114 -6.46937 17.2094 
13.6705 -15.6231 13.7187 12.0412 -12.9887 15.4019 12.9481 -14.4122 15.0635 
11.0056 -5.08532 18.573 10.9187 -8.12943 16.676 10.7522 -6.90248 17.0974 
11.1912 -9.50632 16.6024 11.4833 -10.9202 16.3269 11.8259 -12.1852 15.8545 
13.3417 -14.7904 15.0585 12.4377 -13.5777 15.5545 10.9188 -5.61271 18.164 
13.7221 -15.3055 14.5619 11.2652 -3.93545 19.7641 10.8608 -7.29473 17.1106 
11.1078 -8.60187 16.8765 11.3713 -10.026 16.7924 11.6768 -11.3722 16.3925 
12.8853 -14.1117 15.6902 10.8642 -6.1053 17.8422 12.0784 -12.6641 15.9435 
13.5886 -14.9901 15.1603 13.8399 -15.58 14.4161 11.2544 -4.27938 19.6559 
11.0188 -7.71142 17.2096 11.2898 -9.10235 17.1196 10.8935 -6.46849 17.7357 
11.5479 -10.4953 16.917 13.2432 -14.4602 15.813 11.8753 -11.804 16.4461 
12.393 -13.176 16.0899 11.082 -5.13292 18.891 13.8183 -15.1975 15.2909 
11.6745 -3.03053 21.1654 11.2037 -8.16849 17.3926 10.983 -6.83628 17.7161 
11.4551 -9.59008 17.3304 13.5367 -14.7304 15.8883 11.7231 -10.9208 16.9976 
12.0951 -12.2404 16.5194 12.7587 -13.6533 16.2891 11.0433 -5.57074 18.6285 
13.9724 -15.5314 15.0819 11.3614 -4.1029 20.0971 11.7118 -3.20991 21.2559 
11.1264 -7.24061 17.7809 11.3809 -8.65307 17.6249 11.6152 -10.0328 17.4807 
11.0588 -5.95057 18.471 11.9047 -11.3255 17.0626 13.1281 -14.0635 16.4614 
12.3539 -12.6898 16.6544 13.7216 -14.8688 16.0534 11.2769 -4.52879 19.7675 
13.924 -15.1651 15.8752 12.1246 -1.99132 22.5909 11.3015 -7.69143 17.9327 
11.5389 -9.12613 17.8408 11.1291 -6.33215 18.3938 11.7773 -10.4339 17.5885 
12.105 -11.7302 17.1446 12.6705 -13.1602 16.8559 13.4077 -14.3223 16.6274 
11.2339 -4.94714 19.4893 14.0642 -15.4477 15.7812 11.6714 -3.46952 21.1713 
11.4726 -8.17412 18.1395 11.2543 -6.74422 18.4066 11.691 -9.55751 18.0099 
11.9482 -10.8149 17.6819 12.0965 -2.40526 22.4767 11.2387 -5.36465 19.2729 
13.6927 -14.6406 16.6463 12.3412 -12.1649 17.2687 13.0016 -13.5659 17.0836 
11.5473 -3.8864 20.7758 13.9195 -14.9669 16.532 12.353 -0.949257 23.559 
11.4168 -7.20388 18.5132 11.625 -8.64629 18.3425 11.2947 -5.79011 19.1305 
11.8481 -9.95054 18.1449 12.1404 -11.206 17.7842 12.6209 -12.6191 17.4623 
11.4675 -4.31261 20.4091 13.3437 -13.9812 17.2099 11.9964 -2.86861 22.1937 
14.0906 -15.3116 16.4054 11.5792 -7.69499 18.6841 11.4053 -6.24273 19.0789 
11.7717 -9.07974 18.5136 13.6408 -14.3631 17.2132 12.0189 -10.3297 18.2681 
11.4441 -4.7597 20.1077 12.3371 -1.54672 23.3914 12.3664 -11.6286 17.9202 
12.9569 -13.13 17.6578 11.8562 -3.3744 21.7389 13.884 -14.7377 17.1087 
12.5362 -0.106007 24.2715 11.5559 -6.73064 19.1325 11.7237 -8.17567 18.8605 
11.4781 -5.24243 19.8814 11.927 -9.48147 18.6617 11.7515 -3.83888 21.2986 
12.2137 -10.7212 18.4007 13.2979 -13.6275 17.7638 12.6421 -12.1339 18.0823 
12.2549 -2.18945 23.0595 14.0736 -15.1292 16.9728 11.5738 -5.74645 19.7674 
11.7089 -7.24462 19.2613 11.6939 -4.31459 20.9003 11.8624 -8.61898 19.0151 
13.5972 -14.0765 17.7479 12.1021 -9.87519 18.8069 12.1359 -2.8604 22.588 
12.4465 -11.1704 18.5487 12.5002 -0.815632 24.063 12.9619 -12.7085 18.2344 
13.8421 -14.4937 17.6423 11.7023 -4.7993 20.6175 11.7127 -6.2802 19.7676 
12.0235 -3.50319 22.0502 11.844 -7.74391 19.4049 12.7866 0.612305 24.9817 
12.0129 -9.03471 19.1569 12.3092 -10.2975 18.9632 13.2858 -13.28 18.3031 
12.4361 -1.57396 23.7092 12.7215 -11.7076 18.7012 14.0373 -14.9197 17.5003 
12.3275 -2.49324 23.149 11.9716 -4.01962 21.6384 11.7728 -5.31877 20.4511 
11.857 -6.83337 19.8528 13.5721 -13.7886 18.2658 11.973 -8.20133 19.5331 
12.1894 -9.45395 19.3043 12.5586 -10.7816 19.1372 13.0225 -12.3241 18.8139 
12.6839 -0.264927 24.6394 13.8078 -14.2441 18.1547 12.5458 -1.40456 24.0156 
12.2695 -3.19276 22.7089 11.9682 -4.50424 21.3312 11.8893 -5.88279 20.3999 
11.9853 -7.36282 19.9656 12.1142 -8.63218 19.6526 13.3154 -12.9461 18.8408 
13.0605 1.32313 25.6866 12.4068 -9.91047 19.4763 12.8445 -11.3515 19.3029 
13.9996 -14.6992 18.0022 12.7455 -0.46161 24.7308 12.5103 -2.15314 23.6504 
12.2473 -3.77937 22.3345 12.0103 -5.01479 21.125 13.5746 -13.5033 18.7795 
12.0192 -6.47028 20.4429 12.1062 -7.84067 20.0679 12.285 -9.06967 19.7854 
13.1329 -11.9913 19.3977 12.6764 -10.4355 19.6819 12.9915 0.662561 25.4761 
13.7913 -13.9936 18.6606 12.4969 -2.85978 23.3105 12.7153 -1.14345 24.4452 
12.2485 -4.30496 22.0242 12.0926 -5.57615 21.027 12.1406 -7.02991 20.5282 
12.2373 -8.28384 20.1625 13.391 -12.6354 19.3895 12.5046 -9.55091 19.9577 
12.9827 -11.0445 19.8832 13.3556 2.14879 26.4133 13.9718 -14.4781 18.4886 
12.948 -0.0466489 25.2435 12.5012 -3.52667 22.988 12.7069 -1.82331 24.1516 
12.2721 -4.82145 21.7926 13.6133 -13.223 19.3031 12.1975 -6.16931 21.0298 
12.2571 -7.5287 20.6117 12.3979 -8.73022 20.2719 13.2701 -11.7039 19.9899 
12.788 -10.1097 20.1872 13.2206 1.24639 26.0395 13.8012 -13.7416 19.1758 
12.9184 -0.779917 24.9564 12.7135 -2.53077 23.862 12.516 -4.12976 22.6957 
12.3217 -5.36647 21.6587 12.3085 -6.73962 21.0908 12.3817 -7.98326 20.6875 
13.5019 -12.3503 19.9632 12.6103 -9.22133 20.4293 13.1137 -10.7547 20.4343 
13.9607 -14.2612 18.9666 13.6095 2.96363 27.0012 13.1455 0.390447 25.7242 
12.9157 -1.49092 24.6698 12.7326 -3.25604 23.5856 13.6882 -12.9467 19.8531 
12.5366 -4.68283 22.4596 12.397 -5.937 21.6274 12.4225 -7.25002 21.1623 
12.5321 -8.4326 20.7751 13.4063 -11.4348 20.5831 12.8941 -9.79491 20.6623 
13.4326 1.8605 26.5532 13.843 -13.4817 19.7181 13.1194 -0.415994 25.4448 
12.9284 -2.22035 24.3904 12.7597 -3.94055 23.3312 12.5678 -5.22222 22.3077 
12.4935 -6.4907 21.6669 12.5445 -7.71194 21.2275 13.6233 -12.0788 20.5664 
12.7311 -8.92115 20.9075 13.2275 -10.4585 20.9425 13.9697 -14.0494 19.438 
13.8067 3.77291 27.4164 13.3223 0.876495 26.1568 13.1258 -1.17781 25.1793 
12.9499 -2.98299 24.1342 12.7883 -4.55055 23.117 13.7832 -12.6679 20.4432 
12.6208 -5.76163 22.2547 12.6048 -6.99377 21.7287 12.687 -8.16126 21.298 
13.5227 -11.153 21.1446 13.0003 -9.48836 21.1199 13.9959 -13.8384 19.8977 
13.3234 -10.1474 21.4011 12.8697 -8.63968 21.4027 12.7261 -7.45262 21.7874 
12.7038 -6.28084 22.2773 13.2956 -0.0233871 25.8756 13.1437 -1.93922 24.9094 
12.8186 -5.10214 22.9725 12.9812 -3.73019 23.9139 13.6325 2.49385 27.0338 
13.7311 -11.7937 21.1735 13.9105 -13.2032 20.3055 13.1129 -9.18653 21.5761 
13.6135 -10.8429 21.6406 12.8627 -7.89658 21.845 12.8106 -6.75819 22.3296 
12.8652 -5.61883 22.9174 13.8736 -12.3615 21.0744 13.0185 -4.39644 23.7372 
13.1628 -2.72639 24.6544 13.318 -0.852663 25.6485 13.4847 1.39848 26.5607 
13.9502 4.54177 27.7148 14.0336 -13.5996 20.3853 13.4079 -9.82205 21.823 
13.0283 -8.36182 21.9223 13.8162 -11.4787 21.7347 12.931 -7.19944 22.3807 
12.9423 -6.10244 22.9343 13.0601 -4.97047 23.6242 13.1878 -3.50899 24.4471 
13.3509 -1.6592 25.4134 13.4422 0.404677 26.245 13.9795 -12.8595 20.9615 
13.8149 3.1778 27.4678 13.2389 -8.88408 22.0486 13.682 -10.5025 22.0675 
13.0622 -7.62886 22.4259 13.0468 -6.54622 22.9817 13.1162 -5.4787 23.5901 
[...]
POINT_DATA 724
VECTORS velocity double
0.0970299 -0.012117 -0.382988 0.132773 -0.0339596 -0.369181 -0.0264083 0.0899377 -0.336004 
0.0630551 0.0219614 -0.275668 -0.123122 0.161362 -0.31442 0.0128316 0.0003918 -0.355128 
-0.0138891 0.0524902 -0.184519 -0.172891 0.174309 -0.332998 0.0792152 -0.0804045 -0.3734 
-0.0804132 0.0795016 -0.317432 0.0641548 -0.0773459 -0.329593 -0.00921789 -0.00944589 -0.24074 
-0.0249393 -0.00502335 -0.164233 -0.142532 0.127972 -0.304568 -0.18248 0.139482 -0.376311 
-0.00373214 -0.0557355 -0.324064 -0.079687 0.023881 -0.167085 0.0454798 -0.141445 -0.31924 
-0.163933 0.122937 -0.318259 -0.087582 0.0252916 -0.272986 0.0189751 -0.122281 -0.206362 
-0.1709 0.0848842 -0.42095 0.000310684 -0.104046 -0.239381 -0.0983458 -0.00689241 -0.146885 
-0.154268 0.0797079 -0.356452 -0.130566 0.0631664 -0.247368 -0.0166288 -0.112432 -0.252046 
-0.0941538 -0.0140739 -0.121227 0.0860864 -0.247208 -0.281 0.0273641 -0.200194 -0.229775 
-0.16062 0.0512272 -0.438236 -0.126671 0.042121 -0.263694 -0.0770159 -0.0445842 -0.177913 
-0.0568654 -0.109579 -0.187532 -0.118036 0.0123644 -0.350568 -0.00203988 -0.174055 -0.14337 
-0.142317 0.0151316 -0.0720526 -0.0111956 -0.17902 -0.13026 -0.0918193 -0.0210622 -0.14435 
-0.157004 0.0475808 -0.422012 0.153066 -0.34913 -0.361084 0.0231391 -0.236463 -0.264229 
-0.080826 -0.0581843 -0.0151231 -0.104821 -0.0169989 -0.372685 0.0349291 -0.26989 -0.0878502 
-0.0762503 -0.0384723 -0.206312 -0.0410965 -0.127199 -0.0367726 -0.096903 -0.0820813 -0.123678 
0.0312967 -0.255686 0.00173322 -0.0575317 -0.0716104 -0.272853 -0.0400279 -0.0994136 -0.0412942 
0.0223931 -0.256124 0.0338239 -0.143044 0.0368817 0.049113 0.19973 -0.40614 -0.415746 
-0.104874 -0.00781699 -0.355732 -0.169271 0.102193 -0.372093 0.0449901 -0.273326 -0.273957 
0.0773809 -0.348521 0.0863381 -0.0250413 -0.119392 0.124731 -0.0209224 -0.115118 -0.132886 
0.0057502 -0.19359 0.087998 -0.103189 -0.0417896 -0.0316908 -0.0537363 -0.0759537 -0.296055 
0.129061 -0.350993 -0.336412 0.0976971 -0.341618 0.157595 0.070312 -0.315224 0.157558 
-0.000716892 -0.145353 0.00957651 -0.101734 0.0485373 0.188952 -0.0111704 -0.131337 -0.214362 
-0.109032 0.0368003 -0.304883 -0.202851 0.224816 -0.32347 0.236329 -0.431637 -0.442944 
-0.0104494 -0.159664 -0.119914 0.135658 -0.408716 0.19381 0.0617135 -0.199927 0.241819 
0.0261224 -0.199117 0.10118 0.0120222 -0.158142 -0.113916 -0.0461068 -0.0623657 -0.2539 
-0.0950798 0.0565297 0.153119 0.0779096 -0.235542 -0.171793 -0.230452 0.353979 -0.285259 
-0.13461 0.136938 -0.268548 0.174009 -0.344014 -0.303653 0.17126 -0.413219 0.225877 
0.0856769 -0.302584 0.135528 0.00618141 -0.143356 -0.0302845 0.00330273 -0.141568 -0.192685 
-0.0103193 -0.00127674 0.293378 0.258832 -0.411691 -0.411274 -0.0130689 -0.034719 0.0774548 
-0.0592605 -0.00240552 -0.224526 0.158173 -0.404361 0.144383 0.0220272 -0.170735 -0.129633 
0.000238964 -0.134125 0.00130643 0.154999 -0.304136 0.257535 -0.045386 0.0914462 0.267623 
-0.18692 0.307508 -0.249956 0.101197 -0.161626 -0.036031 -0.195305 0.359582 -0.196489 
-0.0038596 -0.109033 -0.179464 0.193565 -0.266993 -0.16612 -0.00336049 -0.126242 -0.0976015 
0.0392224 -0.19892 -0.00102643 0.205619 -0.439504 0.148089 -0.136404 0.201424 -0.233929 
0.0832969 -0.10928 0.271519 0.274693 -0.351776 -0.310807 0.019407 0.0105825 0.172769 
0.0149159 -0.152817 -0.145057 -0.0775313 0.0764641 -0.206624 -0.0434974 -0.0539695 -0.112974 
0.108795 -0.304346 -0.0074073 0.20506 -0.380824 0.152272 0.00376728 0.048224 0.242279 
0.12846 -0.110654 0.0772502 -0.155212 0.306439 -0.178048 -0.142948 0.29461 -0.0654146 
-0.0263564 -0.0380808 -0.176293 0.216654 -0.196652 -0.0123445 -0.0171829 -0.104739 -0.146081 
-0.0418208 -0.0516753 -0.138013 0.168401 -0.38045 -0.00776299 -0.132725 0.253531 -0.196402 
0.295972 -0.283482 -0.172797 0.142461 -0.222409 0.154556 0.0351658 0.0057117 0.173251 
-0.113591 0.271653 -0.0417096 -0.00644969 -0.0973974 -0.15897 -0.0933401 0.158925 -0.190777 
-0.0756651 -0.000286467 -0.181458 0.00510547 -0.125586 -0.145686 0.192192 -0.387426 -0.000524674 
0.13197 -0.105339 0.113633 0.0472483 -0.0484975 0.135975 -0.103461 0.246448 -0.0882309 
0.269364 -0.214938 0.0175938 -0.131706 0.436179 0.0641828 -0.0541443 0.0610834 -0.17519 
-0.0327189 -0.0697337 -0.170786 -0.106848 0.063142 -0.20921 0.0660421 -0.219578 -0.137216 
0.0242715 -0.0222976 0.0998848 -0.097023 0.229197 -0.130419 0.162012 -0.304437 0.00738445 
0.205681 -0.181857 0.0781099 0.333863 -0.251577 -0.0359163 -0.104425 0.388197 0.0485994 
-0.0333375 -0.00910563 -0.166961 -0.089851 0.0275498 -0.203071 -0.0795226 0.187106 -0.143082 
-0.0937463 0.0485598 -0.208144 0.0779324 -0.100442 0.0689728 0.111636 -0.282435 -0.120889 
0.083416 -0.160322 0.00756299 -0.0770622 0.250061 -0.00985745 0.282767 -0.254023 0.05049 
-0.0866177 0.46821 0.251251 -0.0483215 -0.0129149 -0.178795 -0.0582189 0.127568 -0.146327 
-0.133839 0.11366 -0.218971 0.154578 -0.189822 0.0525683 -0.0541504 -0.0129042 -0.187025 
0.11997 -0.279221 -0.101843 0.0191577 -0.0665078 0.00387135 -0.0580986 0.203713 -0.0353818 
0.368557 -0.293631 0.0201554 -0.0862833 0.42408 0.0805795 -0.0618256 0.455502 0.225664 
-0.0446152 0.070438 -0.15085 -0.0928073 0.0504223 -0.20188 -0.143786 0.142017 -0.203512 
-0.0429417 0.169441 -0.0559196 -0.00983714 -0.0807225 -0.156772 0.0235002 -0.0771467 0.0151682 
0.0806888 -0.199032 -0.0803006 0.204374 -0.249769 0.042511 -0.0677661 0.351546 0.0524798 
0.296291 -0.313156 0.0400921 0.0107935 0.318103 0.407933 -0.0544136 0.0499226 -0.167597 
-0.133509 0.121932 -0.205663 -0.0300335 0.132952 -0.0733792 -0.127779 0.124558 -0.167012 
0.019637 -0.118497 -0.121538 0.0168785 -0.084082 -0.0444975 0.0656319 -0.130346 0.033289 
-0.0445298 0.271664 0.0369422 0.378606 -0.362452 0.0333248 -0.0500979 0.449804 0.182545 
-0.0880779 0.078938 -0.191015 -0.0242234 0.0969852 -0.0927689 -0.149873 0.156948 -0.178055 
-0.0993696 0.0876522 -0.120162 0.0290466 0.34954 0.3497 -0.0198209 0.19861 0.0253553 
0.146146 -0.216439 0.0510136 0.0194774 -0.0982617 -0.078688 -0.013108 -0.0227855 0.0120489 
-0.0513807 0.439296 0.12212 0.242894 -0.304356 0.0537638 -0.0957315 0.229032 0.14474 
-0.0366291 0.0808091 -0.123407 -0.121995 0.120878 -0.195091 0.000899199 0.138874 0.0110589 
-0.144108 0.156265 -0.128786 -0.0701778 0.0560026 -0.0682209 -0.0115531 -0.0155347 -0.0195194 
-0.0408389 0.389036 0.0848045 0.0160973 -0.0494233 0.0738788 0.0257435 0.370342 0.284678 
0.346266 -0.381915 0.051698 -0.0693343 0.0962537 -0.162167 0.0102538 0.0955337 -0.0127831 
-0.137758 0.139679 -0.167217 0.0861069 -0.133255 0.108233 -0.124553 0.136779 -0.0693246 
-0.019313 0.306187 0.0671066 -0.0014776 0.27867 0.226922 -0.0527125 0.0574252 -0.0142192 
-0.035701 0.0606042 0.0628327 0.00381861 0.391805 0.202841 0.178238 -0.236772 0.111275 
-0.260632 0.313091 -0.281459 -0.00203468 0.0783169 -0.0548143 -0.103637 0.118817 -0.184101 
0.00780571 0.210024 0.0581822 -0.134142 0.131179 -0.11507 -0.00987249 0.394261 0.13488 
-0.0994972 0.118394 -0.00961322 -0.0128408 0.0475222 0.146921 -0.0524678 0.105266 0.0409372 
0.0605398 0.314874 0.27972 0.28641 -0.33974 0.102308 0.0274194 0.12946 0.042442 
-0.0381875 0.0904348 -0.113649 -0.00808853 0.357435 0.0908933 -0.122201 0.121269 -0.172693 
0.0473988 -0.0370631 0.196288 -0.116193 0.106681 -0.0514637 0.0682963 0.323478 0.256702 
-0.0779539 0.125535 0.0379498 -0.13487 0.279919 -0.0794399 -0.0536857 0.157946 0.110496 
0.126698 -0.146182 0.20335 0.00714524 0.281488 0.0693599 0.0227165 0.0853126 0.0020386 
0.0436989 0.322089 0.176588 -0.0796818 0.107509 -0.162484 -0.295896 0.475132 -0.462962 
-0.121979 0.0994058 -0.132134 -0.0906393 0.0859154 0.0078346 -0.0248017 0.134384 0.200717 
0.00485835 0.290265 0.121637 -0.0676254 0.174258 0.0650971 0.224356 -0.26155 0.18633 
0.091778 0.295083 0.231667 0.026327 0.308814 0.110187 0.0235964 0.191044 0.053129 
-0.012889 0.0818077 -0.0664883 0.030646 0.0442047 0.272861 -0.106834 0.104181 -0.178276 
-0.10581 0.0622637 -0.0745135 -0.0675405 0.0991604 0.0388422 -0.0575675 0.220676 0.102819 
-0.221441 0.348209 -0.31126 0.0975581 -0.0653435 0.29935 -0.021446 0.291003 0.0241769 
0.0948333 0.254475 0.199742 0.020015 0.271176 0.0675709 0.0223278 0.120897 0.0193989 
-0.0607775 0.0918467 -0.135378 -0.114567 0.0765522 -0.160611 -0.0238208 0.188771 0.192902 
-0.204621 0.555586 -0.285496 -0.0790038 0.030804 -0.0201087 -0.0558473 0.163894 0.0298185 
0.178438 -0.181241 0.286181 -0.175958 0.336032 -0.255854 0.0833256 0.281882 0.155232 
0.0745719 0.213933 0.133812 0.0179024 0.211149 0.0378191 0.0301945 0.0924656 0.297451 
-0.00974459 0.0923898 -0.0438964 -0.0970978 0.0864613 -0.175446 -0.104027 0.0328146 -0.119196 
-0.045059 0.223577 0.0343325 -0.0523104 0.0435019 -0.00291471 -0.205954 0.475309 -0.319612 
0.0892695 -0.0164474 0.362336 0.123346 0.221527 0.189958 -0.0587803 0.295229 -0.0793177 
0.0492429 0.185655 0.0733691 0.00636088 0.150297 0.00358309 -0.0588762 0.0867897 -0.11578 
-0.113834 0.0597511 -0.181708 -0.0129255 0.197841 0.119548 -0.078435 -0.00523098 -0.0734451 
-0.0369023 0.119955 -0.0367855 -0.0845138 0.481192 0.0346179 0.154646 -0.125546 0.373814 
-0.165645 0.373988 -0.247366 0.118202 0.132411 0.163944 0.0527743 0.273705 0.0656216 
0.0233638 0.159422 0.0261176 0.0389953 0.101498 0.253881 -0.0269827 0.113259 -0.0486609 
-0.0999283 0.0748025 -0.166471 -0.110812 0.0188929 -0.160842 -0.0249852 0.186697 -0.0523475 
-0.0468328 0.00774524 -0.0595986 -0.11674 0.48251 -0.126796 0.0945645 -0.00773716 0.366102 
-0.0811651 0.300592 -0.109436 0.122763 0.215119 0.152748 0.0865927 0.073039 0.109128 
-0.0073724 0.133145 -0.0154172 -0.0744621 0.0948793 -0.108825 -0.122323 0.0488404 -0.187823 
0.00263095 0.167193 0.0206683 -0.0887518 -0.0150335 -0.127078 -0.0222702 0.0913418 -0.0910597 
0.14929 -0.10731 0.423706 -0.0237707 0.378497 0.215556 -0.109546 0.392316 -0.131645 
0.0237518 0.262978 0.0323611 0.140369 0.0969111 0.184528 0.0493194 0.0770932 0.161912 
0.0426961 0.0551763 0.0506885 -0.0488392 0.114159 -0.0602283 -0.115331 0.0747181 -0.155173 
-0.124698 0.0152618 -0.183684 -0.00497747 0.150612 -0.0985598 -0.0522085 0.0046478 -0.10867 
-0.0430169 0.417214 0.0487549 0.10304 -0.0331134 0.307508 -0.0539843 0.296689 -0.0208731 
0.106431 0.214737 0.135796 0.116746 -0.014333 0.169167 -0.00629003 0.059844 -0.0011792 
-0.0955619 0.0998236 -0.105542 -0.138783 0.0476716 -0.1798 0.0175046 0.122178 -0.0377278 
-0.105733 -0.00688105 -0.162261 -0.0139171 0.0943536 -0.113713 0.153375 -0.123628 0.424366 
-0.0339889 0.397192 0.183438 -0.0512655 0.390206 -0.0146483 0.0287548 0.241434 0.110909 
0.139233 0.103597 0.197696 0.068891 -0.0585325 0.122234 0.0545367 0.0362857 0.0775284 
-0.0573854 0.070665 -0.0463663 -0.133414 0.080516 -0.140936 -0.142615 0.0207573 -0.184552 
0.013049 0.141541 -0.0843969 -0.064937 0.0230517 -0.139437 0.15604 -0.157749 0.383489 
-0.0122418 0.115139 -0.11605 -0.124418 0.0105636 -0.173292 -0.154459 0.0565412 -0.162444 
-0.104156 0.0771475 -0.0850481 -0.00761929 0.289449 0.0915474 0.0994228 0.204903 0.196114 
0.012142 -0.0477942 0.0661997 0.126051 -0.0398728 0.221747 0.00324819 0.328131 0.160431 
0.0309128 0.0937107 -0.0152578 0.103171 -0.0736101 0.217579 -0.0805895 0.0470068 -0.151827 
0.0275269 0.155146 -0.047652 -0.156801 0.0362171 -0.171203 -0.137833 0.0746771 -0.115924 
-0.042579 -0.016065 0.0145063 0.0537177 0.00441432 0.064128 0.0856036 -0.125897 0.20304 
0.127731 0.128378 0.234952 0.0636123 0.214311 0.249576 -0.00648887 0.355374 0.0700944 
-0.104932 0.469939 -0.0494292 0.148517 -0.192305 0.317162 -0.0175168 0.1332 -0.115114 
-0.137947 0.0335509 -0.168587 0.0450208 0.0931085 0.0527586 -0.154793 0.0662642 -0.139232 
-0.0867815 0.0156177 -0.0307509 0.0346435 -0.135909 0.155114 0.11442 -0.00369081 0.253804 
0.116428 0.183573 0.334072 0.0290364 0.282496 0.155867 0.0871212 -0.0986296 0.156589 
0.0131964 0.310372 0.175323 -0.0935891 0.0682791 -0.154578 0.0351177 0.171418 -0.028753 
-0.154873 0.0589257 -0.1555 -0.115018 0.0409005 -0.0716746 -0.0135844 -0.103746 0.0970409 
0.0808599 -0.113035 0.245679 0.0555358 -0.00360984 0.133102 0.123215 0.152442 0.321284 
0.101369 0.192233 0.353618 0.0264594 0.287001 0.129039 -0.214036 0.518666 -0.410373 
0.125071 -0.211371 0.255229 -0.0273562 0.139185 -0.1201 -0.136536 0.0625279 -0.163993 
0.0579196 0.108232 0.0989377 -0.127357 0.0607619 -0.109461 -0.0495818 -0.0574643 0.0367853 
0.0414208 -0.149952 0.202703 0.0942843 0.0695774 0.28175 0.149423 0.157895 0.477814 
0.0502503 0.267243 0.169828 0.0712609 -0.104026 0.193981 -0.0230643 0.38684 0.0522481 
-0.0962097 0.0890624 -0.161209 0.0341414 0.175284 -0.0371337 -0.125824 0.077437 -0.142741 
-0.0697052 -0.00898454 -0.0237997 0.00575599 -0.131281 0.136515 0.0637617 0.00610598 0.210108 
0.0576738 -0.0302586 0.244063 0.123868 0.177383 0.383359 0.13662 0.163333 0.443736 
0.0425037 0.236408 0.152091 0.0939524 -0.206702 0.255213 -0.295934 0.505804 -0.719292 
-0.0353881 0.137129 -0.135942 -0.110539 0.0940219 -0.168107 0.0655949 0.121086 0.0978998 
-0.07604 0.037405 -0.0817565 -0.0183168 -0.0852993 0.0586629 0.0258451 -0.0807016 0.186741 
0.0817496 0.145345 0.326423 0.0627038 0.229333 0.160036 0.178532 0.135418 0.555524 
0.0671395 -0.0941856 0.282981 -0.119177 0.469847 -0.244022 -0.0793577 0.114667 -0.179151 
0.0271307 0.163717 -0.0655136 -0.0720822 0.0789219 -0.132844 -0.0280462 -0.030125 -0.020107 
0.0014539 -0.0755159 0.10413 0.0732058 0.0204633 0.236748 0.0290905 0.0866771 0.223947 
0.162234 0.158671 0.544777 0.122034 0.169711 0.325037 0.0287384 0.283924 0.102849 
0.0736388 -0.186945 0.328983 -0.0321807 0.138151 -0.163912 -0.0597037 0.112962 -0.172541 
-0.243943 0.415495 -0.660501 0.0661766 0.12151 0.0597476 -0.0257724 0.0238022 -0.087867 
-0.0114963 -0.0385266 0.00731208 -0.00441027 0.0438782 0.130641 0.0863551 0.196427 0.384048 
0.190378 0.117192 0.546369 0.0649197 0.177611 0.136676 0.072053 -0.0792679 0.341783 
-0.135212 0.461393 -0.328134 0.0208705 0.14485 -0.105804 -0.0388778 0.136369 -0.194228 
-0.015669 0.0705717 -0.136564 -0.0107332 0.00666508 -0.0830547 0.0790593 0.0298845 0.208205 
-0.022725 0.0422075 0.0252152 0.0100251 0.196712 0.210523 0.184706 0.145894 0.579477 
0.105474 0.151788 0.221953 0.0695608 -0.165036 0.408052 -0.00939472 0.144251 -0.187405 
0.031464 0.28466 0.0585542 0.0609163 0.107016 0.00280167 -0.00138425 0.106367 -0.163936 
0.00181577 0.0442072 -0.14315 -0.125732 0.363283 -0.375544 -0.0269569 0.0640204 -0.0847644 
0.182906 0.0988908 0.466971 -0.0343672 0.181359 0.0695608 0.102805 0.216235 0.415836 
0.078326 -0.0669465 0.337529 0.0251203 0.128849 -0.140543 -0.185294 0.410784 -0.479616 
0.0145285 0.127258 -0.170787 0.0913124 0.115941 0.141749 0.0211173 0.0671893 -0.159208 
0.0788101 0.0278252 0.143667 -0.016062 0.0823336 -0.171624 0.194696 0.128424 0.549633 
-0.0518027 0.177681 -0.0552901 0.00988435 0.265338 0.202063 0.0729596 -0.148167 0.429821 
-0.0130383 0.382173 -0.0746499 0.0304962 0.12773 -0.156672 0.0553248 0.0832644 -0.0502292 
0.0414304 0.0752884 -0.134815 0.163443 0.0747087 0.351189 0.00683792 0.0805461 -0.204904 
0.117495 0.215332 0.389912 -0.0486745 0.173852 -0.158813 -0.0455521 0.278471 0.0286071 
-0.0334217 0.409106 -0.144232 0.0805278 -0.061809 0.277867 0.0793525 0.121934 0.0924345 
0.0452577 0.102325 -0.118197 0.0580689 0.0706417 -0.0861277 -0.145789 0.313161 -0.387694 
0.191836 0.10261 0.478031 0.0338983 0.0584777 -0.173189 0.0724418 0.0115236 0.0716737 
-0.0281702 0.1487 -0.217388 0.0246779 0.281459 0.167729 -0.0631117 0.266683 -0.0952308 
0.0749167 -0.13788 0.381141 -0.0622577 0.404645 -0.20574 0.0570443 0.051032 -0.0525196 
0.140706 0.0402785 0.228055 0.0680935 0.0544334 -0.0310978 0.0575252 0.0242903 -0.0903669 
0.00181926 0.0991975 -0.216115 0.12417 0.198783 0.318887 -0.0540427 0.227577 -0.167073 
-0.0304692 0.296188 -0.00283933 0.0252644 0.506986 -0.00551304 0.0749394 -0.0690064 0.190794 
0.0538158 0.22945 0.0288645 0.0704097 0.0257959 0.0192341 0.0733601 -0.014146 0.0156155 
0.0635927 -0.017644 0.0377741 0.178519 0.0590122 0.377646 -0.0745706 0.251447 -0.206319 
0.030681 0.0383358 -0.160286 -0.0288964 0.162405 -0.184883 0.0414843 0.261063 0.0956848 
-0.0460202 0.263593 -0.0990896 -0.0836796 0.337821 -0.243745 0.0688151 -0.136414 0.282579 
0.112174 0.0210679 0.106282 0.0658368 -0.015571 0.0627151 0.079792 -0.0518942 0.117229 
0.0516138 -0.0227475 -0.0638702 0.000802126 0.0862207 -0.161915 0.128116 0.151603 0.25241 
-0.0361337 0.197492 -0.129075 -0.0087363 0.260536 -0.059424 0.0635414 0.600431 0.0758496 
0.0599366 -0.0923807 0.130516 0.0203692 0.349303 -0.0498423 0.0570673 -0.0659356 0.103118 
0.0628067 -0.0796167 0.0550197 0.0765545 -0.0874112 0.196358 0.0258805 0.0151677 -0.115506 
0.150663 -0.00901666 0.223832 -0.0141952 0.115236 -0.112098 -0.0234759 0.20934 -0.121628 
0.0533756 0.21725 0.0344755 -0.0167803 0.278829 -0.0626811 -0.0585091 0.236557 -0.159675 
0.0490833 -0.148674 0.196454 0.0668085 0.182511 0.0148035 0.0651623 -0.129621 0.174306 
0.0418286 -0.0463888 -0.0498103 0.00982269 0.0356524 -0.0729755 0.0640164 -0.119554 0.241096 
-0.0164306 0.130139 -0.114152 0.131595 0.062413 0.216063 0.005305 0.214434 -0.108909 
0.0879704 0.664766 0.123044 0.0449937 -0.131044 0.19777 -0.0219936 0.291523 -0.095469 
0.0479205 -0.10325 0.0405649 0.0291649 -0.0264497 -0.034607 0.0601729 -0.169797 0.274518 
0.00126959 0.0405366 -0.0648943 0.106072 -0.00894707 0.0566901 -0.0112525 0.160787 -0.150704 
0.0706839 0.140337 0.0614531 -0.0010249 0.257378 -0.0151535 0.0267076 -0.178094 0.234241 
0.0494911 -0.191974 0.335392 0.040161 -0.0684208 -0.00491863 0.0381294 0.337644 -0.0115729 
0.0458962 -0.158526 0.153319 0.0219528 -0.0441323 0.00112882 -0.0070519 0.0796619 -0.121262 
0.0244341 0.157902 -0.0566048 0.121272 -0.0339706 0.124361 0.100655 0.694344 0.146489 
0.0347437 -0.199877 0.337011 -0.0051941 0.162308 -0.012062 0.0419166 -0.103638 0.0322733 
0.0389617 -0.2076 0.274934 0.0391345 -0.105798 0.0577525 0.00846655 -0.0148379 -0.0506198 
0.00645452 0.121699 -0.0869625 0.0646109 0.223439 0.0032543 0.0904012 0.0421105 0.113633 
0.0292304 0.353677 0.0490457 0.0355172 -0.148739 0.103977 0.0477446 -0.130961 0.0833856 
0.0155801 -0.228876 0.362967 0.0282327 0.207363 0.0489543 0.0290072 -0.111688 0.0395644 
0.0070957 0.0542327 -0.0596791 0.0525313 0.100757 0.0696754 0.0261936 -0.238156 0.35498 
0.0833685 0.0197723 0.00384448 0.107394 0.703476 0.159766 0.0239805 0.257464 0.0540431 
0.0246223 -0.198419 0.202759 0.0463236 -0.128194 0.0793937 0.0484168 -0.193193 0.12597 
0.0185189 -0.0329651 0.00157533 0.0348052 0.104988 0.0658478 0.0688332 0.30458 0.0787318 
0.0853756 -0.020641 0.0480097 0.037351 -0.13038 0.080993 0.00682205 -0.254325 0.373651 
0.0599254 -0.234009 0.180079 0.0402275 0.111707 0.111887 0.0360512 -0.132962 0.0836955 
0.033175 0.0660987 0.0929504 0.0637131 0.0456529 0.0919438 0.0114424 -0.227146 0.263239 
0.0697723 0.23916 0.0276259 0.10943 0.699204 0.165686 0.0242406 -0.152916 0.114179 
0.0447073 0.36383 0.0914219 0.059714 -0.221861 0.184254 0.0553505 -0.234196 0.173149 
0.049525 0.0998701 0.144566 0.0607439 0.0641647 -0.0185838 0.0402929 -0.0023925 0.135852 
0.0842236 0.163099 0.194691 0.0503313 -0.180517 0.153541 -0.00121654 -0.226761 0.257631 
0.0704979 -0.311808 0.24875 0.10075 0.280663 0.160841 0.0507077 0.0343411 0.0185229 
0.0501658 0.108931 0.208167 0.0519954 -0.0951913 0.186764 0.0133518 -0.161784 0.13403 
0.0395007 0.219006 0.103714 0.108547 0.684945 0.16855 0.0365987 -0.146544 0.121549 
0.0748882 -0.333816 0.282681 0.0956062 0.0800499 0.251644 0.0643697 0.20548 0.0315149 
0.0398629 0.084825 0.0902896 0.0657775 -0.205687 0.242382 0.0586128 0.0777087 0.269402 
0.0659662 -0.28841 0.259924 0.00973395 -0.144263 0.120177 0.105386 0.664314 0.168942 
0.0478157 0.255431 0.122009 0.137176 0.21282 0.298215 0.078799 -0.314225 0.299438 
0.0372604 0.116482 -0.0173229 0.0410394 0.129478 0.184471 0.0693591 0.00701003 0.316422 
0.0388549 -0.165763 0.154406 0.108283 0.0457176 0.294222 0.0851214 -0.384066 0.339599 
0.0210912 0.106432 0.00941176 0.114072 0.263144 0.206353 0.0790792 -0.100149 0.344013 