# vtk DataFile Version 3.0
vtk output
ASCII
DATASET POLYDATA
POINTS 724 float
9.95677 -10.1409 10.8536 10.138 -11.2434 10.7311 9.80679 -8.91314 11.1199 
10.3373 -12.2174 10.7174 9.71428 -7.76804 11.4892 9.96256 -9.3841 11.3472 
10.5536 -13.0802 10.7878 9.66544 -6.63654 11.9583 10.1211 -10.3292 11.2628 
9.87851 -8.38329 11.6895 10.2912 -11.1857 11.2444 10.4655 -12.0236 11.2228 
10.7564 -13.7609 10.9208 9.81476 -7.38464 12.0647 9.65859 -5.52993 12.5025 
10.0671 -9.27492 11.781 10.6448 -12.5985 11.3725 10.2462 -10.2316 11.756 
9.78397 -6.36626 12.5222 9.98263 -8.18728 12.1784 10.956 -14.3239 11.1098 
9.69726 -4.42276 13.1172 10.4502 -11.2112 11.7545 10.8387 -13.2309 11.5006 
9.77549 -5.28836 13.0261 9.92778 -7.10273 12.6231 10.1574 -9.04912 12.2497 
10.6688 -11.9889 11.9034 11.1525 -14.7843 11.3529 10.3318 -9.95918 12.2491 
9.76871 -3.53087 13.6682 9.8956 -5.94471 13.1275 10.085 -7.91388 12.7008 
11.0354 -13.7752 11.6811 9.85232 -4.60392 13.5835 10.5208 -10.7837 12.314 
10.8926 -12.7161 12.0633 10.2472 -8.75197 12.755 10.036 -6.74758 13.1875 
9.87886 -2.66577 14.2713 11.3517 -15.1651 11.6578 11.2361 -14.289 11.8862 
10.7329 -11.5475 12.4608 9.90213 -3.63378 14.0956 10.4118 -9.57487 12.7936 
9.98875 -5.46187 13.6743 10.1895 -7.57943 13.2472 11.1267 -13.4178 12.2344 
10.5964 -10.3559 12.8867 9.99398 -4.35419 14.159 10.1403 -6.34567 13.7428 
10.3465 -8.39927 13.3036 10.9648 -12.3332 12.6104 11.5232 -15.4281 11.9671 
9.99674 -2.7266 14.6633 10.0202 -1.84111 14.9246 11.383 -14.3326 12.2778 
10.509 -9.19087 13.3665 10.8083 -11.1435 13.0235 10.1172 -5.14765 14.2376 
10.301 -7.21614 13.8103 11.2184 -13.2074 12.7042 10.0539 -3.29973 14.7105 
11.58 -14.8134 12.4921 10.6903 -9.96037 13.4674 10.4626 -8.04725 13.8784 
10.2648 -6.00807 14.3104 11.0486 -12.0163 13.1419 10.1328 -3.97279 14.7547 
10.1275 -2.09146 15.2541 10.1612 -1.14498 15.5416 11.7143 -15.6519 12.3593 
11.4288 -13.8113 12.8447 10.6267 -8.83153 13.9566 10.8986 -10.7729 13.5847 
10.428 -6.88131 14.3874 10.2447 -4.75967 14.8088 10.1798 -2.72159 15.2938 
11.2862 -12.7711 13.2921 11.6295 -14.3101 13.0283 10.2966 -0.538203 16.1348 
10.2573 -1.56242 15.8169 11.7864 -15.0412 12.9202 10.8037 -9.59799 14.0531 
10.5942 -7.71666 14.4684 10.39 -5.63183 14.8786 10.2532 -3.47657 15.3133 
11.1279 -11.5826 13.7255 11.9061 -15.8067 12.8012 11.5229 -13.4461 13.4558 
10.3044 -2.30419 15.8257 10.76 -8.49757 14.5542 10.3641 -4.32211 15.3546 
10.5572 -6.52926 14.9636 11.0016 -10.3672 14.1734 11.3778 -12.3959 13.8794 
10.3828 -0.760172 16.4156 11.7721 -14.2453 13.5104 10.4586 0.120583 16.85 
10.3784 -3.09877 15.8377 11.9586 -15.0346 13.419 10.5125 -5.24005 15.4268 
10.7297 -7.3816 15.0569 10.9325 -9.23958 14.653 10.3989 -1.36452 16.3708 
11.2279 -11.1884 14.3049 12.0828 -15.8901 13.2483 11.6516 -13.2989 13.9708 
10.4913 -3.96461 15.8799 10.4381 -2.05169 16.3492 10.6852 -6.16598 15.5259 
10.8997 -8.16281 15.1527 11.1226 -9.99752 14.7598 11.4911 -12.1292 14.4129 
11.9092 -14.148 13.9989 10.5251 -0.322435 17.0233 10.6113 0.705296 17.5347 
10.5122 -2.8176 16.3549 12.1119 -14.9337 13.9365 10.6412 -4.88184 15.9643 
10.8643 -7.03522 15.6346 11.0709 -8.9029 15.247 10.5297 -1.03879 16.9153 
12.2446 -15.9208 13.6874 11.3419 -10.8456 14.8575 11.7655 -13.0673 14.4908 
10.68 0.450561 17.7458 10.6267 -3.64187 16.4101 10.566 -1.76875 16.8633 
10.8155 -5.80676 16.0776 11.0395 -7.82878 15.7374 11.2535 -9.66037 15.3324 
12.0161 -13.8888 14.5296 11.5913 -11.7607 14.9526 10.6602 -0.161007 17.5664 
12.2919 -15.2099 14.2515 10.7833 1.39295 18.3447 10.6455 -2.49643 16.8853 
10.7758 -4.53224 16.5042 10.9977 -6.68182 16.197 11.2112 -8.57564 15.8252 
11.8491 -12.6486 15.0413 10.6582 -0.851675 17.4248 11.458 -10.4626 15.4178 
12.2188 -14.4288 14.6508 12.4268 -15.908 14.2165 10.8282 0.931493 18.4159 
10.7626 -3.29526 16.949 10.9486 -5.4423 16.6242 10.7022 -1.47866 17.407 
11.1762 -7.48476 16.3034 12.0825 -13.3546 15.1495 11.3875 -9.30894 15.9047 
11.6887 -11.3078 15.5138 10.7816 0.0778547 18.0745 12.4394 -15.0291 14.8092 
10.9326 2.08454 19.1049 10.9125 -4.16698 17.0478 10.7825 -2.16189 17.4326 
11.13 -6.31276 16.7468 12.3015 -13.9999 15.2376 11.3489 -8.22745 16.3934 
11.5805 -10.0601 15.9889 11.9325 -12.1215 15.6328 10.7963 -0.517541 17.999 
12.5918 -15.8565 14.7286 10.9152 0.906739 18.7572 11.0004 1.8111 19.3034 
10.9006 -2.93506 17.4965 11.0838 -5.06359 17.168 11.3089 -7.11351 16.856 
10.8406 -1.11906 17.975 11.5235 -8.94105 16.4763 12.1776 -12.8996 15.7454 
11.7978 -10.8375 16.0938 12.4858 -14.425 15.4095 10.9225 0.378983 18.672 
12.6309 -15.1079 15.3111 11.0907 2.90567 19.9287 11.0517 -3.78998 17.5948 
11.2628 -5.92408 17.2896 10.9197 -1.7868 17.9906 11.4834 -7.85198 16.9516 
11.7119 -9.65799 16.5677 12.0379 -11.6534 16.2116 12.3994 -13.5047 15.8929 
10.9416 -0.157543 18.6005 12.7647 -15.7629 15.3015 11.0499 1.41976 19.4115 
11.2232 -4.67545 17.7126 11.0382 -2.54841 18.0481 11.4404 -6.71866 17.4005 
11.6603 -8.55847 17.0438 11.1494 2.48331 20.056 10.9844 -0.738033 18.5579 
12.617 -14.2204 15.9394 11.924 -10.4175 16.672 12.2811 -12.4121 16.3523 
11.0624 0.861969 19.3148 12.7815 -14.9205 15.8906 11.2556 3.7077 20.6903 
11.1929 -3.39888 18.1425 11.4002 -5.52662 17.8319 11.0608 -1.3947 18.5552 
11.6165 -7.45668 17.5019 11.8505 -9.27455 17.1411 12.1582 -11.2049 16.7983 
11.0843 0.293341 19.2148 12.5256 -13.2183 16.4408 11.1814 1.96682 20.0624 
12.9197 -15.64 15.8533 11.3676 -4.28118 18.2586 11.1793 -2.15484 18.5989 
11.5758 -6.3162 17.9424 12.7436 -13.9896 16.4699 11.7977 -8.17226 17.6012 
11.1284 -0.310281 19.144 11.3032 3.1656 20.7598 12.0623 -10.0247 17.2528 
12.4087 -12.0682 16.9055 11.1951 1.36028 19.9398 12.9184 -14.7352 16.432 
11.4348 4.46319 21.3876 11.3378 -3.00308 18.6885 11.5454 -5.13074 18.3759 
11.205 -0.993091 19.114 11.7522 -7.059 18.0456 11.2219 0.746376 19.8119 
11.9929 -8.89947 17.7073 12.6519 -12.9347 16.9735 12.2979 -10.8585 17.3615 
11.3181 2.54054 20.6942 13.0598 -15.4888 16.3886 11.3254 -1.75994 19.1457 
11.5179 -3.88735 18.8033 11.2717 0.0837459 19.7048 11.7196 -5.92209 18.4843 
12.8681 -13.7563 16.9879 11.9367 -7.78768 18.1491 11.3255 1.85881 20.5346 
12.21 -9.68623 17.8164 11.4741 3.82733 21.415 12.5446 -11.755 17.4513 
13.0451 -14.5341 16.9549 11.356 -0.614658 19.6646 11.4881 -2.60887 19.2305 
11.3536 1.1276 20.3506 11.699 -4.74326 18.9196 11.6101 5.16625 22.0032 
11.8949 -6.67155 18.5855 12.1379 -8.54713 18.2561 12.7813 -12.6554 17.5018 
11.4676 3.0874 21.2813 12.4467 -10.5465 17.9197 13.1876 -15.309 16.9109 
11.4518 2.18987 21.0145 11.4175 0.446528 20.2478 11.4813 -1.38227 19.6903 
11.6743 -3.49752 19.3441 12.9912 -13.5069 17.5055 11.8735 -5.54249 19.0257 
12.0803 -7.41948 18.6855 12.3611 -9.36562 18.368 12.6883 -11.4595 17.9995 
11.6494 4.40581 21.9922 13.1653 -14.3068 17.474 11.5886 3.26493 21.6515 
11.4924 1.47856 20.8694 11.5143 -0.254053 20.2108 11.6475 -2.22787 19.7708 
11.8607 -4.36384 19.4605 12.047 -6.30355 19.1212 12.9154 -12.3714 18.0378 
11.764 5.81424 22.5287 12.2848 -8.20409 18.7916 12.6005 -10.2482 18.4745 
13.3058 -15.0999 17.4253 11.743 4.2593 22.2091 11.5998 2.52848 21.5035 
11.5697 0.804849 20.7857 11.6472 -1.01873 20.235 13.1156 -13.2366 18.0328 
11.8379 -3.11663 19.8824 12.0368 -5.17614 19.5641 12.2305 -7.0648 19.2148 
12.8382 -11.1683 18.5539 12.5128 -9.0482 18.9083 11.8484 5.32676 22.6462 
13.2833 -14.0497 18.0009 11.6469 1.85115 21.393 11.7566 3.59088 22.1238 
11.6788 0.104656 20.755 11.8165 -1.85855 20.3117 12.0286 -3.99036 19.9977 
12.2085 -5.94851 19.6548 13.0554 -12.0792 18.5873 12.4346 -7.86479 19.3176 
12.7553 -9.94922 19.024 11.9171 6.48641 23.0509 13.4171 -14.8628 17.9367 
11.913 4.73502 22.6868 11.7304 1.17724 21.3208 11.775 2.9202 22.0138 
11.8207 -0.658847 20.7794 13.244 -12.9453 18.5775 12.0086 -2.74255 20.42 
12.2069 -4.81402 20.1001 12.3883 -6.71858 19.7414 12.9904 -10.8735 19.1105 
12.6639 -8.72615 19.4374 12.0087 5.85894 23.1301 13.4024 -13.7609 18.5466 
11.94 4.05313 22.614 11.8204 2.24823 21.9156 11.8488 0.471119 21.2946 
11.9936 -1.494 20.8537 12.2012 -3.61725 20.5333 12.3777 -5.5974 20.1875 
13.1993 -11.7779 19.1473 12.5883 -7.52603 19.8388 12.907 -9.64077 19.5619 
13.523 -14.6006 18.4472 12.0634 7.08094 23.5347 12.0751 5.19394 23.1321 
11.9641 3.36441 22.5144 11.9036 1.56266 21.8484 13.3767 -12.6358 19.1403 
11.9997 -0.29485 21.3213 12.1855 -2.37078 20.9588 12.3812 -4.44867 20.635 
12.5535 -6.37414 20.2692 13.1397 -10.5683 19.6605 12.8132 -8.39463 19.9562 
12.1558 6.36255 23.5783 13.5247 -13.4415 19.1179 12.1174 4.49823 23.0669 
12.0086 2.66912 22.4229 12.0264 0.845231 21.8269 12.177 -1.12674 21.3959 
12.3772 -3.24154 21.0701 12.5519 -5.24158 20.7213 13.3421 -11.4651 19.7084 
12.7463 -7.18352 20.3588 13.0519 -9.31408 20.0851 13.6231 -14.3198 18.951 
12.2215 7.61637 24.0258 12.2261 5.64331 23.5547 12.1546 3.79605 22.9817 
12.0895 1.95976 22.3617 12.1839 0.0749087 21.8578 13.51 -12.3111 19.7136 
12.3678 -1.99577 21.5002 12.5578 -4.07581 21.1713 12.7238 -6.02424 20.7992 
13.2796 -10.2398 20.1951 12.9609 -8.04855 20.4687 13.7148 -14.0309 19.4343 
13.1888 -8.96132 20.595 12.9075 -6.83082 20.8816 12.7282 -4.87543 21.2581 
12.5568 -2.86032 21.6109 12.2823 4.92538 23.4906 12.2055 3.08258 22.9045 
12.3648 -0.752634 21.936 12.213 1.22474 22.3471 12.3046 6.83835 24.0251 
13.4754 -11.1239 20.26 13.6494 -13.0983 19.7141 13.1077 -7.68339 20.9808 
13.4073 -9.87714 20.7125 12.8964 -5.66165 21.3346 12.7356 -3.69436 21.7126 
12.5541 -1.61274 22.0429 13.6346 -11.9442 20.2886 12.3731 0.448712 22.3856 
12.2879 2.35267 22.8569 12.3367 4.20966 23.419 12.3719 6.07669 23.971 
12.3991 8.11345 24.5431 13.8041 -13.7153 19.9286 13.3193 -8.57863 21.0985 
13.0706 -6.46236 21.4113 13.5953 -10.7427 20.7977 12.9047 -4.49719 21.8007 
12.7394 -2.47135 22.1558 12.5549 -0.371095 22.4709 12.4104 1.60059 22.8548 
12.4024 3.48319 23.3615 12.4365 5.33395 23.8991 13.7655 -12.6804 20.329 
12.4671 7.29883 24.4943 13.2548 -7.29757 21.5 13.5238 -9.47523 21.2182 
13.0692 -5.2838 21.8778 12.9147 -3.30391 22.2606 12.742 -1.22145 22.5837 
[...]
POINT_DATA 724
VECTORS velocity double
0.881403 -0.899761 1.30626 1.03045 -0.622467 1.42661 0.779121 -1.41285 1.16583 
1.19659 -0.467402 1.48223 0.732205 -1.99276 1.08619 0.745816 -1.34277 1.07398 
1.3416 -0.293951 1.44328 0.726654 -2.53146 1.11199 0.82199 -1.04619 1.15174 
0.67777 -1.8515 0.944422 0.937513 -0.912191 1.21656 1.09724 -0.821162 1.27068 
1.43047 -0.0753805 1.32145 0.658636 -2.35297 0.912382 0.776501 -2.99663 1.23085 
0.650345 -1.56303 0.876619 1.19557 -0.836702 1.20787 0.702122 -1.29968 0.91878 
0.677107 -2.79309 0.982428 0.5937 -2.1189 0.7534 1.47322 0.172973 1.14401 
0.912175 -3.47969 1.36506 0.833852 -1.20619 0.979011 1.31018 -0.730971 1.1195 
0.75666 -3.17576 1.1369 0.597717 -2.63691 0.765359 0.551998 -1.82767 0.676095 
0.965444 -1.28979 0.947455 1.47998 0.416179 0.937882 0.570779 -1.56716 0.688771 
1.10131 -4.0028 1.44895 0.65413 -3.04055 0.911268 0.527964 -2.41101 0.600796 
1.38787 -0.557934 0.977636 0.825757 -3.44549 1.16376 0.641664 -1.50738 0.705477 
1.11703 -1.32274 0.88154 0.474502 -2.11976 0.513611 0.567183 -2.89826 0.689813 
1.34047 -4.74178 1.51348 1.46116 0.639398 0.719032 1.43633 -0.275781 0.806869 
0.757031 -1.61636 0.693644 1.02401 -3.93479 1.2788 0.456108 -1.85718 0.492087 
0.662918 -3.2147 0.895048 0.497527 -2.70836 0.52426 1.26266 -1.16885 0.776043 
0.484974 -1.74951 0.493632 0.813944 -3.52696 1.04641 0.56393 -3.10497 0.676482 
0.437449 -2.43605 0.428385 0.933575 -1.73551 0.672017 1.43172 0.805874 0.538868 
1.26378 -4.66617 1.36559 1.57711 -5.68615 1.57023 1.41235 -0.443613 0.646699 
0.395116 -2.14509 0.387755 0.582231 -1.81948 0.50566 0.654271 -3.29742 0.829954 
0.501514 -2.98151 0.526443 1.1614 -1.58 0.633897 1.04044 -4.10397 1.16101 
1.43029 0.00307525 0.495561 0.391452 -1.94829 0.382367 0.445319 -2.74343 0.437651 
0.564591 -3.23714 0.669332 0.780109 -1.98235 0.532271 0.822822 -3.62321 0.949275 
1.40844 -5.32203 1.37819 1.75218 -6.5983 1.64398 1.39186 0.962165 0.366195 
1.28923 -1.23851 0.556973 0.39179 -2.42273 0.391362 0.460592 -1.91997 0.406642 
0.521553 -3.19601 0.572019 0.651202 -3.34055 0.766998 1.13342 -4.51867 1.13404 
0.988672 -2.01325 0.53577 1.35909 -0.787696 0.468406 1.88566 -7.40068 1.78646 
1.4979 -5.91032 1.39737 1.40795 0.176707 0.365092 0.360917 -2.12289 0.375102 
0.481088 -3.01189 0.515299 0.562399 -3.29872 0.658067 0.858393 -3.79429 0.888468 
0.617204 -2.06159 0.453641 1.35017 1.09059 0.241568 1.16754 -1.76373 0.516888 
1.15825 -4.8153 1.08742 0.426708 -2.67512 0.47476 0.647789 -3.36484 0.700052 
0.537901 -3.33502 0.62175 0.385375 -1.96028 0.389062 0.8426 -2.1858 0.511814 
1.70411 -6.95493 1.62276 1.32447 -0.985609 0.453035 2.03126 -8.19745 2.11411 
0.849996 -3.90836 0.812659 1.37999 0.105477 0.333991 0.54509 -3.29071 0.61992 
0.517726 -3.21546 0.60996 0.375211 -2.29219 0.445051 1.41127 -5.94884 1.31352 
0.502208 -1.99914 0.442293 1.31272 1.18463 0.184809 1.10681 -1.9436 0.546736 
0.619206 -3.36089 0.619516 1.09074 -4.86958 1.00021 0.530766 -3.37839 0.636428 
0.469773 -2.88421 0.584595 0.358604 -1.98279 0.434455 0.743761 -2.16203 0.53869 
1.2862 -1.14539 0.505335 1.73724 -7.36439 1.79216 2.17561 -8.75807 2.60496 
0.790254 -3.92574 0.724453 1.34784 -0.0443586 0.388581 0.507544 -3.23754 0.557403 
0.528409 -3.32091 0.670752 0.404722 -2.43587 0.54254 1.36988 -6.1284 1.33591 
1.27802 1.24967 0.187512 0.428301 -1.87644 0.46786 1.02298 -2.03685 0.618986 
1.95399 -8.19802 2.38249 0.565169 -3.3325 0.538981 1.01789 -4.92462 0.954664 
0.494005 -3.33354 0.606895 0.490208 -3.00942 0.665994 0.354747 -2.00249 0.502406 
1.21313 -1.39882 0.61788 0.621971 -1.99617 0.566958 1.62329 -7.21841 1.84105 
1.31331 0.393208 0.386329 2.33479 -9.12272 3.35769 0.717302 -3.94839 0.663256 
0.451333 -3.15755 0.486154 0.500526 -3.31316 0.674472 0.421146 -2.52905 0.62073 
0.874863 -2.02372 0.683323 1.25314 -6.01615 1.32611 0.369749 -1.74453 0.502457 
1.27003 -0.690977 0.588511 1.23281 1.29555 0.247432 2.00742 -8.37615 2.8627 
0.493954 -3.29946 0.474067 0.432462 -3.22633 0.546846 0.920377 -4.92034 0.939056 
0.472443 -3.03034 0.691429 1.05394 -1.7044 0.744824 0.352796 -2.02721 0.564386 
0.490632 -1.74135 0.575625 1.55548 -7.15738 1.98438 1.25862 0.223649 0.518356 
2.42323 -9.10588 4.14309 0.380214 -3.06653 0.42093 0.62427 -3.94813 0.629484 
0.438406 -3.21179 0.628724 1.15835 -1.07493 0.738323 0.409529 -2.5586 0.65655 
0.326691 -1.65058 0.537173 0.684721 -1.81856 0.697592 1.18545 -6.0525 1.44804 
1.17763 1.3071 0.334912 1.81938 -7.92354 2.79728 2.15364 -8.59484 3.81667 
0.404842 -3.26011 0.429782 0.356467 -3.09155 0.478729 0.417174 -2.95537 0.662143 
0.839988 -4.96624 1.00295 0.338246 -2.036 0.602049 0.879633 -1.69061 0.798505 
0.380786 -1.50134 0.575629 1.16482 -0.476631 0.710291 1.46908 -7.0262 2.19374 
1.17046 0.453165 0.573122 2.44635 -8.67855 4.98482 0.297119 -2.97739 0.371791 
0.356981 -3.05976 0.558867 0.531865 -3.96762 0.644635 0.364912 -2.51162 0.64476 
0.29224 -1.59251 0.56685 0.523585 -1.539 0.681998 0.981598 -1.28522 0.82631 
1.11853 -6.04513 1.63766 1.09328 1.28233 0.425639 1.8124 -7.89689 3.29583 
0.276093 -2.96152 0.422566 0.307345 -3.23025 0.413493 0.337024 -2.81438 0.598433 
0.302067 -1.99989 0.607332 2.1169 -8.27622 4.46396 0.769102 -5.00431 1.13323 
1.04644 -0.539714 0.766545 0.307131 -1.33525 0.587143 0.68588 -1.52117 0.789568 
1.45734 -7.07213 2.60502 1.05165 0.348937 0.637053 2.50006 -8.08293 5.69679 
0.206319 -2.8992 0.341602 0.273985 -2.90528 0.493563 0.447592 -3.99849 0.711076 
0.293665 -2.39579 0.59649 0.256458 -1.53486 0.586884 0.398842 -1.29268 0.673284 
1.0974 -6.12877 1.94999 0.830518 -1.22472 0.830832 1.75771 -7.71748 3.7795 
0.984013 1.22086 0.469852 0.197878 -2.85476 0.386359 0.211163 -3.21508 0.427835 
0.252158 -2.65548 0.529537 0.902435 -0.578287 0.766262 0.244314 -1.90666 0.583054 
0.731388 -5.09503 1.34807 2.10313 -7.83822 5.02868 0.258769 -1.22817 0.617626 
0.549482 -1.32124 0.779238 1.40913 -7.01572 3.01077 0.909726 0.269692 0.628607 
2.61855 -7.58696 6.18112 0.11446 -2.8397 0.329424 0.202962 -2.78366 0.450161 
0.384442 -4.0542 0.828899 0.212874 -2.2476 0.534614 1.05659 -6.14834 2.27036 
0.21342 -1.45665 0.595359 0.683837 -1.12831 0.808757 0.331316 -1.13744 0.708162 
1.69981 -7.44027 4.21841 0.851863 1.12816 0.453369 0.129951 -3.22806 0.475082 
0.125788 -2.77698 0.367315 0.681741 -5.12278 1.55983 0.18202 -2.52569 0.47898 
0.751103 -0.58232 0.724749 0.175346 -1.77968 0.541665 1.33108 -6.86665 3.36127 
0.228313 -1.15102 0.665635 2.15831 -7.4342 5.44095 0.453609 -1.16314 0.800773 
0.754856 0.194896 0.568251 0.32853 -4.09424 0.964206 0.0322464 -2.81013 0.335018 
0.96316 -6.0395 2.48523 0.150149 -2.70671 0.429536 2.69069 -7.24629 6.3014 
0.143247 -2.11752 0.482453 0.165022 -1.35861 0.592705 0.560039 -1.02947 0.798325 
1.67806 -7.13888 4.54178 0.301292 -1.05397 0.786374 0.704141 1.01238 0.382814 
1.20811 -6.59938 3.47522 0.603937 -5.08204 1.72852 0.0677062 -3.26315 0.546251 
0.0640416 -2.72994 0.359332 0.607047 -0.574845 0.675874 0.137962 -2.45021 0.454234 
0.111911 -1.66006 0.499783 0.205779 -1.09359 0.719067 0.401478 -1.06808 0.874109 
2.2044 -7.14728 5.56712 0.599196 0.11894 0.485684 1.54992 -6.8347 4.42642 
0.839117 -5.8638 2.60881 0.270439 -4.11608 1.09184 -0.0297103 -2.81924 0.358858 
0.116031 -2.66958 0.4228 0.100138 -2.04078 0.452529 0.471321 -0.954287 0.830591 
2.63981 -6.99715 6.074 0.117859 -1.27001 0.580618 0.295923 -1.02642 0.892361 
0.551517 0.883324 0.28018 1.93095 -6.91228 5.09162 1.09639 -6.3354 3.51027 
0.505201 -5.01072 1.84885 0.0236055 -3.31899 0.628924 0.485717 -0.566448 0.654291 
0.0186642 -2.71763 0.360496 0.121701 -2.42789 0.449029 0.068746 -1.58801 0.469094 
0.38654 -1.03644 0.993918 0.184819 -1.05783 0.760098 2.3051 -6.97774 5.55906 
0.456794 0.0456074 0.414921 0.723502 -5.69813 2.67812 1.46587 -6.57795 4.30101 
0.20696 -4.13393 1.19635 -0.0653067 -2.87052 0.399493 0.0990875 -2.66346 0.42225 
0.0887323 -2.02739 0.444038 0.422729 -0.916222 0.917652 0.0802333 -1.21921 0.561472 
0.299091 -1.03867 0.993548 2.46517 -6.74976 5.58274 0.406492 0.752316 0.175476 
1.88815 -6.78779 4.88406 0.404063 -4.94753 1.92008 1.02832 -6.13669 3.48646 
-0.00735485 -3.39477 0.709402 0.39921 -0.563854 0.685177 -0.00470606 -2.74496 0.373485 
0.128563 -2.4446 0.453857 0.0538727 -1.58099 0.453613 0.392451 -1.05509 1.12745 
0.162146 -1.04953 0.772657 2.14173 -6.85287 5.10289 0.341191 -0.0204877 0.387964 
1.44848 -6.46836 4.16123 0.641345 -5.57825 2.68202 0.1407 -4.163 1.26424 
-0.0757515 -2.95884 0.451753 0.0980493 -2.6848 0.427894 0.105852 -2.06579 0.450468 
0.406741 -0.916744 1.04153 0.0594487 -1.22239 0.539093 0.295175 -1.07505 1.05282 
0.28181 0.629781 0.0993949 2.25201 -6.52332 5.06362 1.76946 -6.72973 4.50569 
1.01015 -6.04952 3.39469 0.320115 -4.91664 1.92951 0.350285 -0.571769 0.77017 
-0.0313826 -3.48944 0.77236 -0.00409179 -2.81118 0.401959 0.151707 -2.48615 0.465288 
0.0678072 -1.63344 0.452571 0.397266 -1.10348 1.22646 0.138635 -1.07242 0.750731 
1.9326 -6.74987 4.59262 0.261492 -0.0756213 0.423063 1.37915 -6.44024 3.86026 
0.604565 -5.53769 2.61252 0.0802748 -4.21831 1.28058 -0.06796 -3.07486 0.506209 
0.112518 -2.73379 0.446759 0.143504 -2.13642 0.467955 0.403946 -0.947395 1.15752 
0.0595472 -1.27954 0.518759 0.274729 -1.12174 1.04652 0.187349 0.524271 0.0733766 
2.05842 -6.31296 4.65453 1.59126 -6.71048 4.03717 0.974389 -6.04171 3.16232 
0.269717 -4.94452 1.87021 -0.0505092 -3.6094 0.802291 0.327988 -0.592521 0.878941 
0.0176415 -2.90902 0.446159 0.185374 -2.54596 0.488858 0.105196 -1.72671 0.465735 
0.382871 -1.16126 1.25109 0.1187 -1.12529 0.701294 0.125582 0.439624 0.0991243 
0.237864 -1.16901 0.974832 0.0805514 -1.37802 0.508029 0.192752 -2.22461 0.50014 
0.14191 -2.81012 0.487175 1.2461 -6.47009 3.44506 0.580235 -5.56601 2.43088 
-0.0497998 -3.21577 0.549941 0.0393629 -4.32267 1.23771 1.71317 -6.63883 4.11602 
0.393339 -0.999766 1.21929 0.215465 -0.117663 0.507613 0.108565 -1.20282 0.642412 
0.342287 -1.21299 1.18791 0.157903 -1.84226 0.497756 0.22663 -2.62472 0.535675 
0.0540398 -3.03194 0.499987 0.315616 -0.641483 0.972776 -0.0601202 -3.77291 0.788599 
0.245768 -5.03457 1.72456 0.889964 -6.10093 2.80923 1.37646 -6.69495 3.54533 
1.91148 -6.08748 4.4267 0.0874009 0.3672 0.165695 0.193431 -1.21328 0.861111 
0.119294 -1.50144 0.518016 0.360977 -1.06371 1.19707 0.246926 -2.32668 0.557482 
0.184232 -2.91138 0.551871 -0.025567 -3.39403 0.570398 0.0238327 -4.48841 1.12916 
0.535746 -5.66024 2.14058 1.05939 -6.52637 2.9697 0.196819 -0.188719 0.625099 
1.51763 -6.49139 3.75287 0.113807 -1.29843 0.598582 0.280263 -1.24905 1.05231 
0.217903 -1.9711 0.558733 0.274741 -2.72589 0.614953 0.0981644 -3.18418 0.551751 
-0.0530306 -3.99983 0.728244 0.294065 -0.71997 1.00465 0.228869 -5.18872 1.49403 
0.748834 -6.20528 2.37391 1.15694 -6.65125 3.10031 1.81244 -5.79237 4.37168 
0.0645344 0.294881 0.257255 0.154788 -1.2571 0.743222 0.170538 -1.63941 0.56246 
0.303624 -1.12441 1.08815 0.303131 -2.44779 0.651589 0.235608 -3.03769 0.634175 
0.00597363 -3.62928 0.560159 0.0303321 -4.72489 0.963004 0.449391 -5.80872 1.76513 
0.843309 -6.57808 2.49245 0.178641 -0.268691 0.69144 1.37486 -6.25712 3.56754 
0.136645 -1.40851 0.594217 0.210709 -1.26673 0.883397 0.27962 -2.11648 0.660267 
0.329109 -2.85119 0.726252 0.145651 -3.38159 0.589428 0.25086 -0.806989 0.94613 
-0.0257329 -4.29621 0.627845 0.563128 -6.32871 1.90462 0.199482 -5.40719 1.1998 
0.970268 -6.53609 2.78261 0.0476239 0.20991 0.335542 1.73815 -5.40161 4.38201 
0.134044 -1.30749 0.661909 0.228267 -1.79326 0.653847 0.229468 -1.16467 0.920439 
0.360827 -2.59303 0.786102 0.290359 -3.19516 0.719445 0.0484858 -3.93226 0.522279 
0.044754 -5.01834 0.754218 0.627383 -6.58648 2.07484 0.322437 -6.00841 1.35091 
0.147394 -0.370629 0.680727 1.30401 -5.86402 3.57813 0.174661 -1.53638 0.647398 
0.150965 -1.27238 0.73174 0.340153 -2.28571 0.807362 0.386404 -2.99857 0.855822 
0.194918 -3.63646 0.607325 0.188248 -0.889156 0.814618 0.0181098 -4.64908 0.503548 
0.140634 -5.66472 0.868231 0.362946 -6.45783 1.47669 0.844943 -6.30418 2.64243 
0.025319 0.0958648 0.361984 0.136586 -1.37518 0.647812 0.286921 -1.97109 0.796972 
1.6534 -4.95068 4.29517 0.153174 -1.17912 0.740324 0.418551 -2.75794 0.949719 
0.342114 -3.38914 0.791555 0.103226 -4.28959 0.46921 0.0518376 -5.34427 0.525076 
0.164583 -6.21197 0.948157 0.493014 -6.46192 1.90615 0.099641 -0.489519 0.594852 
1.09002 -5.61081 3.27192 0.114419 -1.28113 0.642149 0.221503 -1.69114 0.763604 
0.397271 -2.47568 0.990273 0.439221 -3.16008 0.980116 0.115793 -0.950553 0.646839 
0.245742 -3.93909 0.608671 0.0695332 -5.02614 0.375052 0.0519249 -5.93003 0.535769 
0.190566 -6.49652 1.18645 -0.00883979 -0.0522913 0.319956 0.159329 -1.47349 0.712519 
0.519064 -6.0899 2.10583 0.0910549 -1.17386 0.598943 0.341354 -2.17282 0.981751 
0.470434 -2.92293 1.11581 1.55231 -4.56605 4.05197 0.385115 -3.61075 0.839709 
0.000578157 -6.36324 0.610552 0.16713 -4.66504 0.41672 0.0427541 -5.66679 0.299868 
0.0396823 -0.605957 0.458546 0.105779 -1.31283 0.640741 1.06256 -5.10073 3.25974 
0.268565 -1.87605 0.931091 0.079391 -6.36544 1.07496 0.445948 -2.66196 1.18161 
0.0475881 -0.980794 0.490825 0.477597 -3.31808 1.07433 -0.0539987 -6.15545 0.236299 
0.296876 -4.25489 0.601201 0.119151 -5.38579 0.259742 -0.0540806 -0.220024 0.221724 
0.471229 -5.65979 2.1063 0.192026 -1.60951 0.843982 0.055414 -1.16751 0.538063 
0.38509 -2.37455 1.18014 -0.144321 -6.39343 0.36371 0.506009 -3.05584 1.25058 
0.0192402 -5.94613 0.101201 0.415648 -3.83257 0.859289 0.2334 -5.01323 0.375677 
1.42149 -4.22255 3.647 -0.022134 -0.696469 0.313776 -0.0140458 -6.07924 0.985955 
0.118208 -1.38273 0.723223 0.305721 -2.07055 1.11934 0.999498 -4.62033 3.06486 
-0.156546 -6.29055 -0.00206293 0.476916 -2.80056 1.34326 -0.00161038 -0.98428 0.394977 
0.493503 -3.4466 1.12022 0.159015 -5.68772 0.167171 0.345364 -4.54076 0.589289 
-0.102818 -0.377784 0.104358 0.443227 -5.1435 2.07421 0.0471509 -1.18269 0.569586 
-0.254578 -6.26358 0.205491 0.220426 -1.76859 1.00807 0.408952 -2.52642 1.35175 
0.514889 -3.12441 1.3247 -0.0131665 -6.14053 -0.0553766 0.433677 -4.01801 0.850491 
0.29232 -5.29562 0.344997 1.26586 -3.92115 3.12303 -0.0714331 -0.746709 0.212139 
-0.0519075 -5.62027 0.986572 0.135952 -1.48662 0.855079 0.321108 -2.22158 1.28408 
-0.0243386 -0.979512 0.385562 -0.24133 -6.28081 -0.157316 0.914789 -4.17248 2.71571 
0.480988 -2.85027 1.44055 0.48586 -3.52183 1.11108 0.17854 -5.8981 0.090821 
0.387414 -4.75715 0.572026 0.431643 -4.5786 1.96516 -0.141231 -0.497506 0.023491 
-0.31206 -5.91916 0.175308 0.0545256 -1.23127 0.668663 0.22681 -1.89265 1.15097 
0.406445 -2.58288 1.46068 0.49337 -3.10971 1.32453 -0.0631131 -6.19475 -0.171846 
0.441993 -4.14067 0.815163 0.33273 -5.47519 0.314341 1.08996 -3.64249 2.52184 
-0.0955989 -0.763973 0.197567 -0.0441362 -5.00995 1.00444 -0.0242463 -0.993695 0.455784 
0.310724 -2.28678 1.39091 0.132549 -1.55674 0.963322 0.453593 -2.78818 1.45527 
-0.314327 -6.01935 -0.201564 0.461166 -3.53383 1.05165 0.417251 -4.88115 0.542149 
0.167735 -5.96348 0.0186636 0.808268 -3.75898 2.22276 0.407391 -4.05548 1.71988 
-0.152755 -0.573166 0.0397315 -0.289631 -5.21175 0.326393 0.209325 -1.95016 1.24257 
0.374372 -2.51423 1.48725 0.446918 -3.01637 1.25267 0.0391824 -1.22514 0.725248 
0.442941 -4.1874 0.756327 -0.130129 -6.01678 -0.247333 0.342127 -5.52659 0.265194 
0.896108 -3.36573 1.8716 -0.066615 -0.862495 0.372457 0.0916013 -4.11634 1.10577 
0.2724 -2.23023 1.41949 0.398354 -2.62347 1.38689 0.109856 -1.58124 1.02736 
0.42831 -3.48704 0.953053 -0.350715 -5.43913 -0.150833 0.426091 -4.89719 0.489268 
0.116491 -5.83456 -0.06772 0.580006 -3.47892 1.58902 -0.13671 -0.623825 0.152856 
0.0122232 -1.1825 0.736673 0.317702 -2.3293 1.43085 -0.219233 -4.367 0.419519 
0.164405 -1.89543 1.25709 0.386724 -2.8661 1.12352 0.433405 -4.15524 0.673166 
0.312272 -5.42162 0.18274 -0.21149 -5.53724 -0.29006 0.71651 -3.11866 1.28921 
-0.0617472 -0.886987 0.476638 0.177367 -3.49456 0.935487 0.216028 -2.06665 1.37535 
0.0596043 -1.49033 1.00041 0.324639 -2.3881 1.24736 0.391364 -3.38782 0.826727 
0.404037 -4.79732 0.400152 -0.345091 -4.57316 -0.0687399 0.0337926 -5.47249 -0.170411 
0.475233 -3.16033 1.054 0.110949 -1.7721 1.22138 0.244145 -2.05807 1.30039 
-0.112692 -0.690709 0.322495 -0.102282 -3.50915 0.377201 0.322572 -2.68331 0.955542 
0.405064 -4.03694 0.562557 0.242506 -5.14702 0.0562831 -0.033608 -1.08101 0.700473 
-0.276236 -4.81876 -0.324714 0.523542 -2.85721 0.68881 0.244267 -2.9787 0.518151 
0.0182437 -1.42937 0.991516 0.151133 -1.82007 1.26856 0.2429 -2.12111 1.05369 
0.345806 -3.23223 0.679418 0.348555 -4.57177 0.269927 -0.317334 -3.75477 -0.130178 
-0.0674444 -4.89206 -0.298045 0.0584814 -1.59354 1.15147 -0.105969 -0.761813 0.454279 
0.160815 -1.73889 1.10545 -0.0891398 -2.99231 0.019491 0.25518 -2.4701 0.765114 
0.351415 -3.82808 0.420448 0.151158 -4.71208 -0.105219 -0.0597937 -1.08985 0.746655 
-0.326088 -3.99478 -0.422505 0.355534 -2.63389 0.186615 -0.0220723 -1.33528 0.968968 
0.13972 -2.69789 -0.0171409 0.0793139 -1.50075 1.09466 0.15695 -1.83443 0.828328 
0.268416 -4.22879 0.100855 -0.151671 -4.22347 -0.455101 0.283918 -3.01807 0.510615 
-0.297044 -3.05175 -0.395733 0.00143602 -1.3211 1.0167 -0.11891 -0.820628 0.550506 
0.0672374 -1.38629 0.863593 -0.360473 -3.34889 -0.651678 0.0605165 -4.17693 -0.295608 
0.274285 -3.54162 0.24301 0.17944 -2.22541 0.561086 -0.0942106 -1.03928 0.756543 
-0.0796825 -2.56226 -0.485439 0.172259 -2.40164 -0.340442 -0.0661279 -1.13908 0.882894 
-0.00947716 -1.11689 0.857887 -0.340257 -2.66821 -0.804641 -0.215544 -3.60411 -0.672414 
0.17615 -3.80564 -0.108998 0.0673681 -1.53833 0.590194 0.20413 -2.75593 0.319926 
-0.0761454 -0.950364 0.796945 -0.143622 -0.801233 0.589738 0.0137436 -2.21781 -0.780499 
-0.20188 -2.34978 -0.968813 -0.405682 -2.88533 -0.99194 -0.029444 -1.03302 0.604613 
-0.0329821 -3.61193 -0.54394 0.185236 -3.19884 0.0357497 0.0940902 -1.96577 0.3494 
-0.122973 -0.879538 0.712895 -0.424132 -2.40846 -1.26317 -0.0994336 -0.739351 0.604573 
0.0864433 -3.36144 -0.353734 -0.306669 -3.02615 -1.01463 -0.0216007 -1.27004 0.35265 
0.113121 -2.44852 0.116276 -0.142492 -0.641331 0.591069 -0.154172 -2.0484 -1.23161 
-0.340222 -2.16941 -1.43776 -0.165847 -0.646228 0.539926 -0.116743 -0.742427 0.348757 
0.101701 -2.83614 -0.180901 -0.131669 -3.10252 -0.860342 -0.493521 -2.43597 -1.48672 
-0.000135072 -1.68099 0.136895 -0.171547 -0.444397 0.362563 0.012257 -2.95789 -0.604002 
-0.426098 -2.56448 -1.46855 0.0259524 -2.13116 -0.0902212 -0.497979 -2.09632 -1.80823 
-0.114975 -0.99528 0.127564 -0.194157 -0.336845 0.361682 -0.18996 -0.402442 0.404147 
-0.33221 -1.90581 -1.69209 -0.212523 -2.72714 -1.17604 0.0327477 -2.50617 -0.402604 
-0.20467 -0.458314 0.112794 -0.0909187 -1.38942 -0.0649987 -0.594447 -2.09606 -2.03138 
-0.24823 -0.146566 0.114752 -0.0621946 -2.61863 -0.888472 -0.500873 -2.31849 -1.82614 
-0.49328 -1.81296 -2.09193 -0.0423091 -1.84731 -0.287863 -0.240412 -0.0897767 0.166739 
-0.202696 -0.722388 -0.067737 -0.0205712 -2.24951 -0.634116 -0.324142 -2.40268 -1.56868 
-0.663035 -1.98651 -2.32869 -0.283791 -0.171589 -0.0765709 -0.159284 -1.13495 -0.242709 
-0.628725 -1.76548 -2.41481 -0.302838 0.0984085 -0.0673839 -0.154068 -2.33942 -1.22459 
-0.617576 -2.0582 -2.27505 -0.0774865 -1.672 -0.483752 -0.276959 -0.408926 -0.197326 
-0.0690503 -2.06167 -0.884571 -0.736758 -1.76076 -2.66572 -0.474316 -2.11204 -2.03072 
-0.338817 0.0565217 -0.222321 -0.234109 -0.719457 -0.310709 -0.147459 -1.18792 -0.462363 
-0.278547 -2.1006 -1.61113 -0.0873372 -1.61752 -0.734833 -0.738687 -1.80429 -2.68131 
-0.314196 -0.223331 -0.306576 -0.138637 -1.92446 -1.18749 -0.592339 -1.86533 -2.3755 
-0.218104 -0.705496 -0.422574 -0.337259 -1.85902 -1.77808 -0.119856 -1.22375 -0.658597 
-0.131289 -1.64637 -1.09805 
