# vtk DataFile Version 3.0
vtk output
ASCII
DATASET POLYDATA
POINTS 724 float
10.5798 -11.0114 11.7351 10.8796 -11.8686 11.6979 10.3386 -10.1874 11.8784 
11.2141 -12.6945 11.6997 10.1796 -9.50532 12.1408 10.4982 -10.5898 12.0674 
11.5491 -13.4093 11.7088 10.0739 -8.87519 12.5359 10.7325 -11.2858 12.0513 
10.3425 -9.98315 12.2931 11.0049 -11.9997 12.0749 11.3115 -12.7258 12.0668 
11.8228 -13.9286 11.7372 10.2243 -9.41251 12.5874 10.0272 -8.28582 13.0407 
10.5559 -10.633 12.3811 11.5849 -13.2629 12.1493 10.8058 -11.3592 12.4029 
10.1501 -8.8536 13.001 10.3959 -9.98265 12.6597 12.0577 -14.329 11.8018 
10.0535 -7.72823 13.619 11.1371 -12.2062 12.4373 11.8708 -13.7747 12.1903 
10.1193 -8.26378 13.4956 10.2904 -9.37219 13.0401 10.5894 -10.5976 12.7224 
11.49 -12.9646 12.5407 12.265 -14.6454 11.9146 10.8199 -11.2844 12.7514 
10.1333 -7.31708 14.1246 10.2294 -8.7192 13.5399 10.4497 -9.93356 13.0751 
12.125 -14.1731 12.2624 10.1887 -7.94284 14.019 11.1001 -12.0103 12.8293 
11.847 -13.6175 12.6198 10.6242 -10.5185 13.1146 10.3664 -9.2707 13.542 
10.2573 -6.95247 14.6759 12.4597 -14.906 12.0882 12.356 -14.5061 12.3545 
11.4418 -12.7721 12.9491 10.252 -7.45252 14.5049 10.8229 -11.1296 13.1612 
10.3111 -8.5048 14.0635 10.5202 -9.84348 13.5579 12.1822 -14.1353 12.6915 
11.0737 -11.7972 13.2602 10.3249 -7.87121 14.5505 10.46 -9.11434 14.0875 
10.6826 -10.4095 13.5924 11.8365 -13.5153 13.0439 12.6199 -15.0882 12.291 
10.3628 -7.03265 15.0356 10.4088 -6.6046 15.2912 12.5042 -14.6178 12.6432 
10.8637 -10.9802 13.651 11.4069 -12.5664 13.3906 10.4405 -8.37335 14.6142 
10.6219 -9.72557 14.1207 12.2424 -14.1462 13.0703 10.401 -7.3258 15.0736 
12.7026 -14.8752 12.7697 11.0911 -11.5987 13.7561 10.7852 -10.3005 14.1686 
10.593 -8.97192 14.681 11.838 -13.4103 13.4885 10.4659 -7.68619 15.1145 
10.4987 -6.73749 15.5999 10.5558 -6.26057 15.9056 12.7939 -15.2468 12.5808 
12.5156 -14.4946 13.1471 10.9573 -10.8464 14.2383 11.403 -12.3434 13.8824 
10.7636 -9.60347 14.7567 10.5761 -8.15717 15.1812 10.5301 -7.03414 15.6269 
12.2309 -14.0144 13.6029 12.7391 -14.7444 13.2756 10.7018 -5.87126 16.5441 
10.6299 -6.44174 16.1606 12.896 -15.0291 13.121 11.162 -11.4138 14.3355 
10.9312 -10.1875 14.8343 10.7353 -8.75707 15.2874 10.5887 -7.4049 15.6454 
11.7994 -13.1387 14.0318 12.9663 -15.3591 12.9482 12.5625 -14.419 13.7346 
10.6514 -6.78252 16.144 11.0964 -10.711 14.9127 10.7003 -7.87361 15.7127 
10.9187 -9.42126 15.4166 11.428 -12.0521 14.4669 12.2342 -13.8338 14.1951 
10.7733 -5.92627 16.8189 12.8658 -14.7686 13.7502 10.8963 -5.28653 17.4052 
10.7107 -7.15541 16.1492 13.0533 -15.0652 13.6041 10.8691 -8.47865 15.8531 
11.0937 -10.025 15.5324 11.2778 -11.2132 15.005 10.76 -6.23433 16.7236 
11.7923 -12.8095 14.6263 13.1234 -15.4196 13.3645 12.6564 -14.3776 14.2859 
10.8259 -7.60772 16.2196 10.7743 -6.557 16.6646 11.0649 -9.16356 16.0385 
11.2552 -10.5326 15.6251 11.5035 -11.766 15.1118 12.2672 -13.6306 14.7808 
12.9771 -14.7408 14.288 10.9292 -5.48054 17.5275 11.1096 -4.60223 18.3524 
10.8352 -6.91394 16.6552 13.1844 -15.0328 14.1702 10.9973 -8.17866 16.3842 
11.2466 -9.78421 16.1966 11.4185 -10.994 15.7023 10.8858 -5.89654 17.3139 
13.2639 -15.4369 13.8167 11.8217 -12.4676 15.2298 12.7097 -14.2279 14.8907 
11.1525 -4.67155 18.5399 10.9516 -7.32563 16.7323 10.8903 -6.26496 17.1957 
11.1949 -8.84139 16.6053 11.4065 -10.291 16.3023 11.6089 -11.4856 15.7677 
13.0335 -14.5969 14.9234 12.2497 -13.2609 15.3837 11.0634 -5.13397 18.1728 
13.33 -15.1194 14.5129 11.4104 -3.72287 19.6262 10.9538 -6.60318 17.1873 
11.118 -7.84592 16.9016 11.3775 -9.46189 16.7933 11.5578 -10.7346 16.366 
12.6774 -13.8909 15.5345 11.0041 -5.57784 17.8849 11.8626 -12.0698 15.8513 
13.2382 -14.7866 15.0431 13.4134 -15.4097 14.4103 11.3791 -4.02165 19.5343 
11.0688 -6.99 17.2588 11.308 -8.46263 17.1301 11.0131 -5.90215 17.7846 
11.5362 -9.97356 16.9116 12.9891 -14.2484 15.6717 11.7218 -11.1729 16.4136 
12.2086 -12.7566 15.9883 11.1974 -4.72756 18.83 13.4281 -14.9879 15.1876 
11.7516 -2.86695 20.8848 11.2288 -7.47116 17.4181 11.0722 -6.23032 17.7585 
11.4857 -9.06506 17.33 13.2349 -14.5112 15.7562 11.6823 -10.4082 16.9804 
11.9264 -11.6602 16.4768 12.593 -13.3804 16.1761 11.146 -5.10581 18.5905 
13.5336 -15.3403 15.0125 11.4663 -3.88081 19.9468 11.7681 -3.02453 20.9937 
11.182 -6.60592 17.8094 11.4084 -8.04235 17.635 11.6427 -9.57601 17.4618 
11.145 -5.44279 18.4474 11.8337 -10.8179 17.0305 12.9414 -13.8546 16.3332 
12.1984 -12.2272 16.5935 13.397 -14.6452 15.9248 11.374 -4.24515 19.6444 
13.5426 -14.938 15.7581 12.0769 -1.76341 22.1875 11.3347 -7.06405 17.9476 
11.5783 -8.61573 17.8327 11.1936 -5.78774 18.3766 11.7891 -10.0106 17.5459 
12.0122 -11.2492 17.0938 12.5415 -12.8575 16.761 13.1921 -14.1305 16.4855 
11.316 -4.59355 19.3846 13.6358 -15.2247 15.6775 11.7247 -3.27138 20.9404 
11.5055 -7.6028 18.1446 11.2945 -6.17294 18.3896 11.7325 -9.11883 17.9741 
11.9392 -10.4129 17.6135 12.0447 -2.16487 22.1199 11.3001 -4.94338 19.1807 
13.4262 -14.4436 16.4981 12.2429 -11.7582 17.1912 12.8773 -13.3775 16.9448 
11.6134 -3.67621 20.5906 13.5929 -14.7546 16.3905 12.3284 -0.70079 23.3091 
11.4416 -6.63177 18.4966 11.6675 -8.14879 18.3321 11.3323 -5.31064 19.0472 
11.8808 -9.55634 18.0755 12.1112 -10.8335 17.6878 12.5351 -12.342 17.3436 
11.5319 -4.06244 20.2548 13.1886 -13.8396 17.0341 11.963 -2.61783 21.8868 
13.7021 -15.0886 16.2754 11.6075 -7.15992 18.6721 11.4202 -5.72044 19.0033 
11.8173 -8.64023 18.4749 13.4359 -14.22 17.0233 12.0362 -9.96841 18.1633 
11.4931 -4.44418 19.9715 12.2605 -1.29003 23.1001 12.3245 -11.3163 17.7933 
12.8747 -12.9846 17.4834 11.8555 -3.12321 21.4913 13.6187 -14.5732 16.9255 
12.594 0.0933679 24.2699 11.5595 -6.19369 19.069 11.7651 -7.69377 18.8472 
11.5023 -4.84868 19.7551 11.9659 -9.08114 18.5859 11.7711 -3.58177 21.1005 
12.2137 -10.3985 18.2622 13.1888 -13.5423 17.5412 12.597 -11.9278 17.9212 
12.1591 -1.91686 22.7453 13.7413 -14.941 16.8052 11.5725 -5.28296 19.6487 
11.7227 -6.72992 19.2188 11.7168 -4.02743 20.7362 11.9107 -8.17955 18.9849 
13.4413 -13.9923 17.5046 12.1269 -9.5061 18.6906 12.0593 -2.55901 22.2967 
12.4316 -10.913 18.3833 12.4858 -0.57155 23.9588 12.9109 -12.6178 18.028 
13.6308 -14.3867 17.4043 11.7126 -4.45384 20.4715 11.6996 -5.77512 19.6644 
11.9809 -3.17759 21.8157 11.8795 -7.26975 19.3809 12.8368 0.765368 25.016 
12.0574 -8.62328 19.0958 12.316 -9.96822 18.8105 13.2073 -13.2439 18.0461 
12.3457 -1.29913 23.4898 12.6983 -11.5549 18.5197 13.7623 -14.7831 17.2823 
12.209 -2.16887 22.8673 11.948 -3.67227 21.4509 11.7647 -4.90143 20.3162 
11.8582 -6.32824 19.7803 13.4507 -13.7523 17.9774 12.0235 -7.76047 19.5107 
12.2212 -9.06508 19.2045 12.549 -10.5238 18.9652 12.9886 -12.2762 18.6085 
12.704 -0.0404878 24.6362 13.6377 -14.1862 17.863 12.4608 -1.11867 23.8518 
12.1667 -2.80326 22.4502 11.9505 -4.12289 21.175 11.8732 -5.40554 20.2812 
12.016 -6.88472 19.9267 12.1673 -8.21227 19.6137 13.2543 -12.942 18.585 
13.0371 1.46621 25.5757 12.4195 -9.55527 19.3401 12.8248 -11.2085 19.1372 
13.7733 -14.6121 17.7293 12.7349 -0.208975 24.6918 12.373 -1.81196 23.41 
12.167 -3.33616 22.1197 11.9924 -4.58416 20.99 13.4746 -13.4946 18.4748 
12.0201 -5.97023 20.3557 12.1605 -7.38984 20.0473 12.3293 -8.66601 19.717 
13.1022 -11.9548 19.2315 12.6691 -10.1526 19.5309 12.9795 0.857375 25.4119 
13.649 -13.9649 18.3335 12.349 -2.43067 23.0489 12.6394 -0.841347 24.3245 
12.1902 -3.82443 21.8511 12.0807 -5.0949 20.9125 12.1757 -6.54065 20.479 
12.3017 -7.85209 20.1411 13.3362 -12.638 19.1773 12.5302 -9.17575 19.8567 
12.9613 -10.8843 19.7515 13.2378 2.33043 26.0766 13.7816 -14.4245 18.1689 
12.919 0.211649 25.164 12.3683 -3.00044 22.7425 12.5685 -1.46323 23.9527 
12.2351 -4.31087 21.653 13.5241 -13.2172 19.024 12.2097 -5.66049 20.9442 
12.3214 -7.0598 20.5891 12.4589 -8.3149 20.2339 13.2366 -11.6515 19.8714 
12.7895 -9.80683 20.0701 13.1468 1.45169 25.8489 13.6754 -13.7161 18.8474 
12.8436 -0.461277 24.8222 12.5421 -2.07839 23.6116 12.4126 -3.5345 22.4858 
12.3105 -4.83074 21.5474 12.3575 -6.2325 21.0386 12.4613 -7.53342 20.6744 
13.4479 -12.3354 19.8107 12.655 -8.83611 20.3659 13.0936 -10.5789 20.3288 
13.7944 -14.2179 18.621 13.4237 3.18457 26.4941 13.0782 0.657564 25.564 
12.7804 -1.10919 24.4676 12.5627 -2.67845 23.3152 13.6046 -12.9222 19.6321 
12.471 -4.05532 22.2897 12.4215 -5.3904 21.5439 12.5027 -6.75849 21.1355 
12.6124 -8.00384 20.7565 13.3704 -11.3607 20.4816 12.9107 -9.48582 20.5784 
13.3004 2.0962 26.2347 13.727 -13.4353 19.4286 13.0232 -0.0784398 25.2418 
12.7483 -1.74915 24.1319 12.6175 -3.25299 23.0711 12.5459 -4.58941 22.1741 
12.5576 -5.95219 21.6104 12.6419 -7.24058 21.2136 13.5706 -12.0358 20.4416 
12.7971 -8.52992 20.8717 13.2124 -10.2788 20.8489 13.8181 -13.9928 19.0955 
13.6029 3.9652 26.8968 13.2162 1.15108 25.9216 12.9799 -0.770273 24.9125 
12.7607 -2.38074 23.8392 12.6905 -3.80713 22.8877 13.7071 -12.6151 20.2721 
12.646 -5.14228 22.152 12.6997 -6.47473 21.6933 12.7868 -7.7171 21.2853 
13.4859 -11.0662 21.0268 13.0351 -9.17937 21.0618 13.8549 -13.7543 19.5846 
13.317 -9.96728 21.3148 12.9559 -8.24172 21.3808 12.8378 -6.95933 21.7652 
12.7714 -5.68855 22.2003 13.1715 0.327225 25.6033 12.9554 -1.44664 24.5949 
12.7739 -4.35508 22.781 12.8151 -2.99037 23.6057 13.452 2.76577 26.6056 
13.6811 -11.7278 21.0253 13.806 -13.125 20.0742 13.1661 -8.8747 21.5354 
13.5777 -10.7502 21.503 12.9766 -7.43796 21.8288 12.9082 -6.20084 22.2736 
12.8732 -4.90147 22.7613 13.8088 -12.2838 20.9021 12.8958 -3.57121 23.4418 
12.9647 -2.11287 24.3148 13.151 -0.422532 25.2956 13.3435 1.68773 26.2602 
13.7816 4.67062 27.3541 13.9068 -13.4856 20.1163 13.4138 -9.63385 21.7485 
13.1287 -7.95608 21.9047 13.768 -11.4003 21.544 13.0437 -6.68208 22.3421 
12.9933 -5.43289 22.8094 12.9896 -4.12747 23.3595 13.0136 -2.75458 24.0963 
13.147 -1.14573 25.005 13.2951 0.760763 25.9301 13.8954 -12.757 20.7606 
13.6099 3.44432 26.996 13.3072 -8.56316 22.0205 13.6509 -10.4005 21.9295 
13.1765 -7.15811 22.4008 13.1254 -5.93371 22.8857 13.096 -4.66696 23.3626 
[...]
POINT_DATA 724
VECTORS velocity double
0.974009 -1.96526 1.26662 1.21296 -1.46352 1.42177 0.762071 -2.69037 1.00018 
1.46927 -1.1175 1.42413 0.568616 -3.50413 0.701686 0.827753 -2.54724 0.994628 
1.67981 -0.797962 1.29047 0.348178 -4.4254 0.374595 1.01427 -2.07022 1.14731 
0.64566 -3.23537 0.731389 1.23377 -1.73586 1.22174 1.48525 -1.43629 1.21532 
1.79485 -0.505727 1.11125 0.458253 -4.00355 0.4584 0.0967058 -5.38697 0.061139 
0.786183 -2.78637 0.828805 1.66785 -1.26739 1.08209 0.986544 -2.33046 0.955048 
0.243788 -4.87244 0.177115 0.575576 -3.55451 0.543202 1.84898 -0.251633 0.924963 
-0.171739 -6.30177 -0.188496 1.27018 -1.97237 1.01544 1.81634 -0.987804 0.922363 
-0.000189322 -5.78918 -0.0668627 0.362077 -4.42571 0.26126 0.715968 -3.09731 0.640189 
1.55062 -1.7647 0.913519 1.86826 -0.0517303 0.744224 0.906895 -2.66178 0.749607 
-0.381268 -6.93625 -0.315796 0.119402 -5.41547 0.0121431 0.491156 -3.93293 0.357844 
1.89764 -0.72075 0.752742 -0.168007 -6.41037 -0.181844 1.14561 -2.38085 0.787778 
1.78034 -1.46713 0.746932 0.630715 -3.46549 0.454593 0.266642 -4.8932 0.118107 
-0.56405 -7.42838 -0.358042 1.86929 0.0962757 0.567815 1.93134 -0.458988 0.593548 
1.43674 -2.19073 0.721201 -0.375429 -7.03559 -0.262875 0.795366 -3.07079 0.539714 
0.0112525 -5.93811 -0.0541442 0.409171 -4.36224 0.22282 1.91305 -1.08218 0.57474 
1.0069 -2.79828 0.579921 -0.218393 -6.7189 -0.14537 0.194747 -5.37333 0.0828817 
0.546708 -3.89037 0.315369 1.72714 -1.87446 0.583101 1.86237 0.180496 0.425147 
-0.54573 -7.4738 -0.265997 -0.703877 -7.73546 -0.305296 1.95295 -0.515137 0.445976 
0.695897 -3.50396 0.390731 1.30258 -2.59374 0.555974 -0.025771 -6.2991 0.0110968 
0.356977 -4.81214 0.206818 1.9142 -1.33151 0.441981 -0.423034 -7.27673 -0.171917 
1.93989 -0.269825 0.332562 0.884706 -3.21278 0.441483 0.497566 -4.32555 0.304864 
0.182025 -5.77255 0.193878 1.65627 -2.23665 0.465908 -0.259268 -7.00249 -0.0430968 
-0.629193 -7.65327 -0.174016 -0.778093 -7.79887 -0.185622 1.85022 0.229431 0.284589 
1.96255 -0.953506 0.343266 0.635147 -3.93079 0.379636 1.16461 -2.96298 0.46 
0.363197 -5.21817 0.360779 -0.0433382 -6.6194 0.144633 -0.494049 -7.46911 -0.0750385 
1.86119 -1.76053 0.367221 1.96257 -0.665855 0.269658 -0.784864 -7.60956 -0.027727 
-0.662032 -7.63862 -0.0479276 1.92369 -0.213755 0.225985 0.798591 -3.60384 0.437941 
0.504065 -4.72242 0.477853 0.200914 -6.12036 0.389862 -0.307884 -7.20874 0.0623533 
1.50383 -2.65147 0.436014 1.83417 0.236234 0.177697 1.93721 -1.29272 0.306481 
-0.513427 -7.47296 0.0451936 0.624746 -4.30675 0.551708 -0.0615692 -6.84839 0.273716 
0.408003 -5.56184 0.621789 1.01976 -3.3154 0.483092 1.76827 -2.11847 0.406282 
-0.690086 -7.42228 0.0840769 1.94517 -0.76587 0.25846 -0.689538 -6.97928 0.205511 
-0.317126 -7.24537 0.180608 1.9061 -0.286438 0.201585 0.221826 -6.36494 0.569355 
0.545352 -5.03935 0.764801 0.751064 -3.94729 0.603637 -0.608475 -7.40327 0.114145 
1.3266 -2.9614 0.520026 1.81344 0.215285 0.131607 1.89138 -1.42102 0.382681 
-0.0580471 -6.91965 0.394549 -0.482147 -7.30993 0.180468 0.4519 -5.79795 0.855539 
0.64165 -4.59117 0.831994 0.913131 -3.59068 0.645225 1.64963 -2.31485 0.552148 
1.90166 -0.839259 0.350035 -0.60358 -6.88718 0.264006 -0.540157 -6.03175 0.485632 
-0.294399 -7.13625 0.299917 1.86834 -0.37032 0.285844 0.235396 -6.4673 0.696149 
0.580128 -5.24154 1.01614 0.729276 -4.18777 0.859693 -0.555953 -7.03101 0.253298 
1.78391 0.190641 0.156535 1.15759 -3.15082 0.687324 1.79607 -1.53605 0.568039 
-0.477086 -5.91071 0.533819 -0.0479461 -6.85725 0.493852 -0.446576 -7.03196 0.295346 
0.468483 -5.90569 0.991758 0.650306 -4.75422 1.07097 0.835424 -3.77517 0.867476 
1.81469 -0.938611 0.553341 1.44873 -2.50617 0.748773 -0.497297 -6.28639 0.432805 
1.79996 -0.197097 0.358755 -0.357668 -5.10052 0.908529 -0.276412 -6.91248 0.395155 
0.228957 -6.44224 0.764908 0.584864 -5.32762 1.15487 0.704172 -4.31872 1.07417 
1.61572 -1.72342 0.796067 -0.478601 -6.55167 0.38563 0.987789 -3.30299 0.87853 
1.77196 -0.57622 0.570592 1.72731 0.186332 0.279319 -0.344289 -5.2087 0.837918 
-0.051022 -6.68222 0.559256 0.448049 -5.90002 1.03529 -0.394868 -6.60489 0.408328 
0.634841 -4.81543 1.20322 1.63735 -1.12847 0.817385 0.763107 -3.89271 1.05669 
1.18962 -2.69612 0.916237 -0.41702 -5.70179 0.605062 1.69789 -0.19935 0.581533 
0.0345325 -4.82361 1.29222 0.198378 -6.31053 0.788364 -0.252911 -6.55792 0.478829 
0.554944 -5.32441 1.1938 1.61427 -0.665266 0.808887 0.664434 -4.36906 1.19856 
0.842389 -3.4244 1.03652 1.3426 -1.96414 0.961681 -0.402305 -5.92154 0.542846 
1.64129 0.229107 0.459509 -0.268705 -5.07463 0.941419 0.069083 -4.91811 1.26782 
-0.0580904 -6.39666 0.607253 0.394384 -5.80475 1.0223 0.594463 -4.80853 1.24707 
-0.339389 -6.05241 0.529707 0.691957 -3.94516 1.17221 1.3979 -1.25941 0.967059 
0.949221 -2.85893 1.02951 1.54663 -0.357249 0.818458 -0.318438 -5.20018 0.827553 
1.54906 -0.0173684 0.729978 0.570575 -4.53677 1.62626 0.155958 -6.08909 0.793887 
0.492467 -5.25525 1.17312 -0.224675 -6.09814 0.563188 0.611109 -4.35918 1.24854 
0.724939 -3.49165 1.13687 1.06605 -2.14992 1.03065 1.36994 -0.763684 0.947701 
-0.319012 -5.35177 0.738774 1.50463 0.321936 0.647643 0.0134558 -4.97669 1.20354 
0.322265 -5.64094 0.992491 -0.0623562 -6.03055 0.65309 0.528615 -4.75147 1.23689 
0.620765 -3.93487 1.22664 0.507239 -4.79963 1.52535 -0.272694 -5.5041 0.683143 
1.35787 -0.305042 0.896322 0.771346 -2.94725 1.09787 1.12098 -1.43862 1.00805 
-0.11358 -5.01416 1.07723 1.36179 0.0604261 0.830244 0.919098 -4.31073 1.90132 
0.116473 -5.81343 0.801724 0.406539 -5.13611 1.13243 -0.181195 -5.61828 0.671444 
0.540875 -4.30258 1.25287 0.628869 -3.48297 1.19086 0.828019 -2.28739 1.05724 
-0.173288 -5.07666 0.962231 1.14535 -0.786726 0.9516 0.36328 -4.97519 1.40757 
1.34174 0.418394 0.746058 0.250043 -5.44373 0.971164 -0.0480727 -5.64759 0.717216 
0.438899 -4.65779 1.20397 1.15633 -0.286023 0.888028 0.543639 -3.87088 1.24523 
-0.166202 -5.17515 0.869353 0.82677 -4.60724 1.71441 0.638306 -2.95443 1.1441 
0.889257 -1.52165 0.9938 0.191256 -5.07644 1.27815 1.17127 0.113799 0.82627 
1.13682 -4.59477 2.19283 0.0956868 -5.53673 0.826545 0.313939 -4.99646 1.09968 
-0.105045 -5.28906 0.81131 0.450243 -4.21632 1.23496 0.0763307 -5.12925 1.15901 
0.54038 -3.41015 1.22337 0.930776 -0.828516 0.908411 0.659748 -2.29839 1.07967 
0.666761 -4.87606 1.55554 1.16905 0.487547 0.751844 -0.00267963 -5.3655 0.810728 
0.194736 -5.26346 0.968778 0.0241557 -5.17601 1.04765 0.337064 -4.55274 1.17347 
0.960433 -0.292006 0.829491 0.452105 -3.77956 1.2456 0.487098 -5.11889 1.42355 
0.534922 -2.86903 1.18808 1.03661 -4.70952 1.90372 0.69631 -1.55535 0.982102 
0.986212 0.13296 0.763784 0.03825 -5.23931 0.967267 0.104993 -5.3409 0.876509 
0.337222 -5.29061 1.30188 0.232794 -4.88247 1.08542 1.27473 -4.93371 2.49438 
0.345483 -4.12861 1.21383 0.448097 -3.3013 1.24609 0.736248 -0.866777 0.86092 
0.893701 -4.86504 1.67919 0.53472 -2.22725 1.12729 0.997443 0.520173 0.6944 
0.689594 -5.16778 1.50346 0.265362 -5.3844 1.20271 0.0942757 -5.30185 0.932068 
0.167235 -5.16153 0.986871 0.774277 -0.318779 0.756453 0.240827 -4.47676 1.15675 
0.348251 -3.69421 1.23899 0.441138 -2.74431 1.24031 0.54654 -1.53166 1.00835 
1.15254 -4.99168 2.08813 0.807953 0.120797 0.67647 0.986795 -5.02774 1.72205 
0.56956 -5.44896 1.41006 0.240884 -5.44357 1.12183 0.15375 -5.31 0.955008 
0.175534 -4.84517 1.08733 0.242255 -4.07307 1.19958 0.569865 -0.887337 0.844454 
1.42732 -5.03054 2.84315 0.347554 -3.2074 1.26093 0.437964 -2.11325 1.20885 
0.831091 0.518556 0.603936 1.15081 -5.1523 2.01433 0.871547 -5.28563 1.57977 
0.499438 -5.65282 1.33669 0.241605 -5.48319 1.06845 0.602955 -0.355362 0.69901 
0.171653 -5.18924 1.02617 0.164218 -4.47102 1.15125 0.243499 -3.64918 1.23107 
0.438107 -1.46798 1.08861 0.347631 -2.6398 1.28926 1.28348 -5.19943 2.46883 
0.637824 0.0849661 0.590256 0.77702 -5.60954 1.50213 1.09819 -5.27355 1.81256 
0.45104 -5.77464 1.26806 0.239488 -5.47889 1.05668 0.146562 -4.91812 1.10137 
0.154618 -4.08155 1.19019 0.4413 -0.883235 0.885794 0.245878 -3.16563 1.26487 
0.355586 -2.01781 1.29893 1.6763 -4.84309 3.29386 0.671627 0.489043 0.504136 
1.21165 -5.34485 2.17237 0.701251 -5.90749 1.44928 1.03363 -5.49348 1.67639 
0.404548 -5.8253 1.20905 0.456729 -0.389298 0.68737 0.204814 -5.366 1.08637 
0.11339 -4.56026 1.15081 0.151013 -3.66595 1.21989 0.359275 -1.40622 1.19564 
0.255225 -2.59956 1.31496 1.39861 -5.18865 2.73073 0.481376 0.0347259 0.532244 
1.18301 -5.499 1.9516 0.955858 -5.81206 1.59482 0.631422 -6.11653 1.39864 
0.342599 -5.80005 1.17298 0.144197 -5.10575 1.12822 0.0903415 -4.1702 1.17972 
0.351775 -0.866434 0.978761 0.153882 -3.18957 1.2536 0.277637 -1.98833 1.35251 
0.522608 0.438903 0.416477 1.92324 -4.53286 3.66075 1.26387 -5.42544 2.33784 
1.15357 -5.72735 1.80104 0.871401 -6.15732 1.54825 0.34723 -0.413815 0.739762 
0.548873 -6.21101 1.34482 0.256324 -5.6615 1.16608 0.0886826 -4.74291 1.15574 
0.0789628 -3.75057 1.20062 0.290547 -1.38947 1.26823 0.169491 -2.63308 1.3052 
1.55485 -5.0156 3.02426 0.35121 -0.0193606 0.532243 1.22782 -5.63911 2.09131 
1.09681 -6.05059 1.70491 0.778689 -6.4334 1.51189 0.441373 -6.18183 1.29672 
0.16276 -5.38186 1.17335 0.0511421 -4.33486 1.16832 0.284797 -0.866211 1.06815 
0.0789198 -3.27474 1.22432 0.200334 -2.03272 1.34522 0.392508 0.376667 0.363488 
2.08071 -4.31402 3.82931 1.33139 -5.38577 2.51969 1.2206 -5.91237 1.93585 
1.01019 -6.42068 1.65102 0.666791 -6.57538 1.47002 0.272182 -0.436556 0.82993 
0.315388 -6.01424 1.26475 0.0872301 -4.99598 1.17524 0.0300708 -3.89544 1.17417 
0.219233 -1.43657 1.27083 0.094619 -2.72663 1.26077 0.29165 0.31162 0.361002 
0.124878 -2.13546 1.28441 0.0233717 -3.40835 1.18059 0.0358004 -4.55677 1.16723 
0.196891 -5.70414 1.24525 1.25382 -5.67589 2.22279 1.1895 -6.27548 1.83417 
0.528612 -6.55603 1.42356 0.898886 -6.73808 1.61894 1.71365 -4.7628 3.29691 
0.219638 -0.913414 1.10029 0.258146 -0.0686792 0.597323 0.0327195 -2.86196 1.19279 
0.144242 -1.54314 1.21275 0.00401198 -4.08568 1.15314 0.106022 -5.28724 1.22532 
0.378732 -6.37168 1.38375 0.211053 -0.490287 0.899606 0.763636 -6.91297 1.58848 
1.11221 -6.68525 1.77223 1.24616 -6.00064 2.06343 1.42355 -5.23686 2.72127 
2.13354 -4.22894 3.83571 0.216944 0.244479 0.409004 0.0546951 -2.27875 1.19161 
-0.0121965 -3.57698 1.13708 0.148014 -1.01756 1.06602 0.0432774 -4.81236 1.19807 
0.245936 -6.0366 1.35402 0.607799 -6.90599 1.55481 0.991384 -7.03724 1.7369 
1.23448 -6.42241 1.97217 1.28071 -5.62239 2.34792 0.193481 -0.143782 0.694178 
1.82545 -4.54061 3.4778 -0.0140132 -3.02519 1.12069 0.0695366 -1.69678 1.11904 
0.00133216 -4.30572 1.16318 0.14644 -5.5921 1.32578 0.449098 -6.71721 1.52673 
0.842042 -7.23489 1.71439 0.144618 -0.59304 0.903155 1.17267 -6.89994 1.91512 
1.24647 -5.99691 2.17166 1.53179 -5.0008 2.93668 2.09584 -4.16333 3.76468 
0.161038 0.169085 0.489299 -0.00563606 -2.44931 1.09094 -0.025807 -3.77092 1.12195 
0.0726136 -1.17167 0.986567 0.0765991 -5.08588 1.28947 0.314422 -6.3707 1.51039 
0.679801 -7.23918 1.69987 1.05351 -7.30614 1.88083 1.23791 -6.46644 2.10175 
1.32284 -5.48292 2.47915 0.133696 -0.238713 0.732282 1.86566 -4.4156 3.52729 
-0.0415018 -3.20964 1.074 0.00024313 -1.88167 1.01246 0.0264904 -4.54773 1.24007 
0.215616 -5.91026 1.49717 0.527101 -7.05824 1.70209 0.0714872 -0.73418 0.84325 
0.898966 -7.53385 1.86567 1.23758 -5.91777 2.25944 1.19052 -7.01076 2.07375 
1.62814 -4.73097 3.13596 0.11078 0.0754551 0.548012 2.00001 -3.92813 3.66738 
-0.0498428 -2.63862 1.01134 -0.0116364 -3.9892 1.17565 -0.000445077 -1.35788 0.886954 
0.14494 -5.38321 1.47162 0.405895 -6.71942 1.72575 0.741666 -7.55499 1.87696 
1.07931 -7.49994 2.05611 1.38397 -5.25597 2.62653 1.20963 -6.39769 2.21076 
0.065641 -0.368344 0.69846 1.84268 -4.33018 3.45243 -0.0425371 -3.41749 1.09436 
-0.0573535 -2.08361 0.916624 0.0897325 -4.82295 1.42182 0.32039 -6.2623 1.75588 
0.608429 -7.39287 1.92521 -0.00310823 -0.909119 0.751191 0.930402 -7.78184 2.06013 
1.16511 -6.99999 2.23044 1.24069 -5.71589 2.35013 1.66899 -4.53714 3.24191 
0.0514856 -0.0504027 0.544188 -0.0695772 -2.84762 0.992392 0.0408466 -4.24688 1.34149 
1.88558 -3.48641 3.57623 -0.066022 -1.56721 0.789404 0.257107 -5.73113 1.76475 
0.514248 -7.07912 2.00969 0.789082 -7.82948 2.10846 1.06479 -7.58145 2.26316 
1.16449 -6.2388 2.28291 1.49846 -4.82645 2.89573 -0.00835702 -0.533695 0.617666 
1.74337 -4.29228 3.28775 -0.0947579 -2.3008 0.866098 -0.006596 -3.66554 1.22786 
0.199892 -5.16004 1.72936 0.452476 -6.64442 2.10069 -0.0737032 -1.11293 0.652814 
0.684486 -7.68786 2.21289 0.931404 -7.93484 2.31307 1.10436 -6.88064 2.36671 
1.28153 -5.38107 2.46969 -0.0186266 -0.213797 0.481633 -0.0541207 -3.09253 1.08174 
1.56653 -4.52035 3.09463 -0.116776 -1.79338 0.7211 0.139699 -4.57156 1.63977 
0.401382 -6.12321 2.15154 1.79001 -3.07295 3.49989 0.620895 -7.3959 2.35746 
1.12296 -5.99475 2.31577 0.815473 -8.00895 2.41363 1.00936 -7.53417 2.49612 
-0.0821617 -0.731911 0.519092 -0.100309 -2.54496 0.909459 1.70446 -3.99159 3.16803 
0.0741185 -3.97964 1.49645 1.34326 -4.97061 2.62772 0.342778 -5.54897 2.12903 
-0.133624 -1.33931 0.572962 0.57985 -6.97764 2.49077 1.02098 -6.68067 2.46226 
0.740159 -7.86797 2.56769 0.89591 -7.93652 2.63274 -0.0930951 -0.414117 0.388068 
1.52882 -4.43766 3.03141 0.00502401 -3.39737 1.30724 -0.140912 -2.03862 0.725859 
0.270717 -4.94978 2.02622 1.09716 -5.68456 2.32131 0.535634 -6.46036 2.55376 
0.917903 -7.35382 2.73668 0.696181 -7.56581 2.73564 0.807484 -8.00304 2.79378 
1.70273 -2.72346 3.40308 -0.148652 -0.9601 0.430427 1.34207 -4.68546 2.70394 
-0.0633033 -2.83951 1.08601 0.187885 -4.34644 1.85418 1.6593 -3.59481 3.08709 
0.92761 -6.40469 2.49586 0.473382 -5.88139 2.51815 -0.172128 -1.58325 0.548364 
0.660621 -7.13399 2.85498 0.819203 -7.72279 2.99988 0.751104 -7.82119 2.96377 
-0.163154 -0.651182 0.296547 1.49394 -4.30631 2.90088 -0.125096 -2.32056 0.852342 
1.07993 -5.30576 2.31319 0.100309 -3.75492 1.63093 0.391792 -5.27439 2.38917 
0.614922 -6.61072 2.88086 0.800014 -7.01772 2.92974 0.71002 -7.475 3.09555 
0.747783 -7.70968 3.21009 1.62135 -2.44744 3.27505 -0.196604 -1.21531 0.389836 
1.30457 -4.49981 2.71623 0.0142643 -3.18892 1.3757 0.297167 -4.66318 2.18792 
-0.175055 -1.84797 0.626816 0.840325 -5.99158 2.42264 1.60668 -3.18522 3.03619 
0.550953 -6.03763 2.80623 0.669153 -7.02164 3.14926 0.702788 -7.24853 3.3238 
0.696202 -7.45314 3.34757 1.48187 -4.01942 2.77194 -0.215693 -0.929493 0.253338 
1.07751 -4.8313 2.32733 -0.0645476 -2.65963 1.10706 0.197154 -4.06105 1.93653 
0.468754 -5.44575 2.64679 0.621152 -6.50886 3.10995 0.673968 -6.46336 2.91809 
0.651229 -7.07098 3.40382 0.634863 -7.10998 3.55494 1.5415 -2.22675 3.11511 
-0.207082 -1.50703 0.460514 1.26519 -4.39156 2.63197 -0.132872 -2.16434 0.836583 
0.373456 -4.85298 2.42445 0.0973773 -3.47092 1.65039 0.562388 -5.97099 2.98703 
0.814841 -5.29784 2.19546 0.606957 -6.62894 3.37806 0.582995 -6.78805 3.63894 
0.565783 -6.56318 3.40725 1.54473 -2.8007 2.98031 1.47112 -3.62804 2.6948 
-0.225629 -1.27201 0.343156 1.08515 -4.43946 2.40518 0.271681 -4.2653 2.15836 
0.490244 -5.42519 2.79765 0.561973 -6.16475 3.27551 -0.00101326 -2.87591 1.32813 
0.538778 -6.41027 3.62507 0.58046 -5.70771 2.5489 0.496426 -6.32626 3.65096 
1.46028 -2.04593 2.92592 -0.131688 -2.07051 0.826723 1.33425 -3.99324 2.50684 
0.404633 -4.87448 2.55672 0.514679 -5.69771 3.10688 0.166912 -3.67155 1.85499 
0.498575 -6.02118 3.54242 0.851124 -4.59569 2.08149 0.447912 -5.98236 3.70932 
0.439486 -5.75874 3.04782 1.48018 -2.75199 2.82909 -0.174534 -1.66344 0.602357 
0.0476019 -2.99538 1.46967 0.461006 -5.23221 2.88704 1.1085 -4.28846 2.34283 
0.307481 -4.30751 2.27133 0.46138 -5.63545 3.40057 0.410251 -5.63919 3.67197 
0.364258 -5.51594 3.34273 0.579258 -4.83352 2.00756 1.38884 -1.9166 2.74346 
-0.0460898 -2.42849 1.12602 1.3842 -3.37295 2.50853 0.396072 -4.75969 2.62822 
0.1955 -3.67837 1.92428 0.426777 -5.26018 3.20295 0.378819 -5.31914 3.58068 
0.320424 -5.1909 3.43751 0.892851 -4.29707 2.11966 0.36257 -4.9274 2.32395 
1.42138 -2.45364 2.74625 0.317404 -4.26251 2.33404 0.392408 -4.89415 2.95819 
-0.0671686 -2.16504 0.998541 1.2352 -3.78536 2.26426 0.350721 -5.01552 3.44427 
0.291701 -4.89326 3.44078 0.255029 -4.74776 2.65076 0.0911971 -3.0486 1.56714 
0.633353 -4.2592 1.80487 1.31626 -1.81145 2.54605 1.37212 -2.59505 2.58554 
0.231031 -3.74394 2.02476 0.35387 -4.53118 2.6842 0.325538 -4.72569 3.25859 
0.269641 -4.6308 3.3967 0.20728 -4.47522 2.8361 0.964147 -4.15563 2.0472 
0.36843 -4.22808 1.69585 0.306387 -4.15758 2.40517 0.0369572 -2.592 1.32212 
0.303297 -4.44923 3.02156 1.26913 -3.24753 2.25668 0.250149 -4.38927 3.31448 
0.184107 -4.21916 2.92177 0.189043 -4.08851 1.87454 0.161677 -3.27568 1.76 
0.691895 -4.12832 1.79286 1.25726 -1.74653 2.37716 0.251331 -3.76591 2.13285 
1.3136 -2.32459 2.47748 0.282347 -4.18161 2.75052 0.232398 -4.16186 3.18834 
0.111984 -3.85267 2.07992 0.399643 -3.91388 1.47123 0.170018 -3.99586 2.95349 
1.08305 -3.72215 1.96924 0.258923 -3.90872 2.47389 0.127999 -2.93962 1.58715 
0.21576 -3.93968 3.0026 0.740777 -4.04171 1.69666 0.166236 -3.65584 1.35201 
0.0824342 -3.61841 2.21422 0.160121 -3.79906 2.95462 0.202625 -3.38092 1.91518 
1.26291 -2.56142 2.30276 1.19885 -1.70768 2.20172 0.230873 -3.62006 2.20919 
0.200686 -3.71618 2.75086 1.09846 -3.37052 1.90293 0.411223 -3.84865 1.36962 
0.0449723 -3.37947 1.40387 0.152304 -3.61976 2.92312 0.0718586 -3.41718 2.3093 
0.187094 -3.47866 2.44872 0.173633 -3.0839 1.77944 1.15392 -1.70545 2.05999 
1.20735 -2.42818 2.16866 0.76345 -3.86894 1.5522 0.143784 -3.43941 2.83013 
0.16739 -3.49687 1.09457 -0.00608656 -3.12816 1.50412 0.0712302 -3.25031 2.39129 
0.188652 -3.28995 2.08809 1.05749 -3.16162 1.78335 0.13511 -3.24992 2.6392 
0.00854567 -3.12954 0.969061 0.456766 -3.83342 1.26267 0.0758116 -3.10959 2.46055 
-0.0222096 -2.91574 1.61132 0.135223 -3.07092 2.30886 1.11098 -1.74083 1.91947 
1.1443 -2.37776 1.9966 0.152064 -2.94369 1.91459 0.0811338 -2.9766 2.49243 
-0.0708983 -2.80447 0.971909 0.184044 -3.51057 0.957922 0.842755 -3.51082 1.45108 
-0.0207116 -2.74038 1.71673 0.0860826 -2.85481 2.45389 -0.0146913 -3.04476 0.726091 
0.540584 -3.70931 1.14116 -0.101945 -2.53167 1.00752 1.05781 -2.63581 1.75353 
-0.00576187 -2.6098 1.85145 0.0850934 -2.71038 2.28993 0.100688 -2.66087 2.02865 
1.06658 -1.83161 1.77444 0.186341 -3.495 0.809546 -0.11431 -2.63444 0.619629 
0.0166307 -2.50741 1.99832 -0.106772 -2.30222 1.06738 0.915932 -2.98454 1.43572 
0.0364644 -2.40609 2.08533 -0.0248279 -3.03881 0.546603 0.535561 -3.53673 0.974872 
1.01697 -1.97409 1.62314 -0.159754 -2.28191 0.565643 0.0515371 -2.32187 2.04662 
-0.0856961 -2.14656 1.22301 -0.13801 -2.57411 0.383356 0.211714 -3.43905 0.639192 
0.825157 -2.93007 1.21565 -0.0411394 -2.05891 1.49172 -0.174105 -1.96971 0.545044 
0.949756 -2.16847 1.43638 -0.00212172 -1.98418 1.68939 -0.0156201 -3.0496 0.374579 
0.561335 -3.24236 0.807596 -0.192277 -2.16233 0.263254 -0.134165 -1.78169 0.807137 
-0.143066 -2.56633 0.200564 0.818434 -2.47134 1.11192 0.267811 -3.27656 0.448848 
-0.0933771 -1.61811 0.988049 -0.198559 -1.67788 0.318692 -0.215622 -1.85105 0.117849 
0.0166144 -3.01569 0.181848 -0.196176 -2.15367 0.0364957 0.59772 -2.79815 0.669696 
-0.183312 -1.41197 0.341574 -0.127893 -2.57794 0.0223382 0.275535 -2.97021 0.193529 
-0.221882 -1.50792 0.00433559 -0.0227924 -2.74799 -0.11412 -0.211968 -1.80477 -0.103189 
-0.169436 -2.23416 -0.159379 
