# vtk DataFile Version 3.0
vtk output
ASCII
DATASET POLYDATA
POINTS 724 float
10.3649 -10.6393 11.4442 10.6183 -11.5957 11.3761 10.1626 -9.66365 11.6379 
10.9009 -12.4857 11.3768 10.0371 -8.80734 11.9532 10.3134 -10.0949 11.8332 
11.1916 -13.2612 11.4134 9.9677 -7.97783 12.402 10.514 -10.8881 11.7888 
10.1904 -9.34171 12.1082 10.7444 -11.665 11.7978 10.9999 -12.4445 11.7899 
11.4399 -13.84 11.4808 10.1036 -8.60571 12.4491 9.95968 -7.17578 12.9563 
10.3827 -10.0855 12.1847 11.2357 -13.0084 11.9002 10.5977 -10.9038 12.1846 
10.063 -7.85801 12.9067 10.2597 -9.27141 12.5158 11.6624 -14.2952 11.5875 
10.025 -6.40512 13.5783 10.875 -11.8154 12.2072 11.4887 -13.5736 11.9755 
10.0674 -7.06349 13.438 10.1885 -8.47313 12.9418 10.4331 -9.9827 12.5677 
11.1718 -12.6028 12.3314 11.8654 -14.6566 11.7418 10.6317 -10.7581 12.5794 
10.1351 -5.83446 14.1139 10.1623 -7.60402 13.4766 10.3312 -9.14 12.9699 
11.7238 -14.0275 12.0856 10.1605 -6.59755 13.9847 10.8687 -11.5341 12.6515 
11.4788 -13.3059 12.445 10.4867 -9.82439 12.9995 10.2808 -8.26991 13.4708 
10.2864 -5.33409 14.6866 12.0602 -14.9518 11.9561 11.9461 -14.4191 12.2143 
11.1537 -12.3199 12.7846 10.2532 -5.9479 14.4931 10.66 -10.5173 13.035 
10.2587 -7.27303 14.0132 10.4172 -8.95715 13.4789 11.7821 -13.9017 12.5545 
10.8747 -11.2359 13.129 10.3034 -6.45244 14.5193 10.3843 -8.00922 14.0224 
10.5622 -9.62481 13.5053 11.4858 -13.1113 12.9067 12.2226 -15.155 12.1918 
10.3896 -5.40174 15.039 10.4597 -4.88557 15.31 12.0907 -14.5158 12.5363 
10.7224 -10.2779 13.5559 11.1521 -12.0328 13.2644 10.3918 -7.05977 14.5588 
10.5268 -8.74255 14.0438 11.8452 -13.8515 12.963 10.4094 -5.75477 15.0603 
12.291 -14.8332 12.6894 10.9196 -10.9548 13.655 10.6737 -9.42377 14.0828 
10.5165 -7.77987 14.599 11.5079 -12.9276 13.3784 10.4496 -6.19407 15.0784 
10.5391 -5.03915 15.6029 10.6192 -4.4932 15.9181 12.4003 -15.3276 12.5135 
12.104 -14.2859 13.0623 10.8283 -10.0564 14.1454 11.1806 -11.7397 13.7788 
10.6652 -8.53351 14.6526 10.528 -6.76727 15.1126 10.5499 -5.39648 15.6121 
11.8505 -13.6208 13.5124 12.3252 -14.6058 13.2079 10.7681 -4.10782 16.5376 
10.6767 -4.71785 16.1541 12.4883 -15.0032 13.0648 11.0088 -10.6935 14.2363 
10.8172 -9.22715 14.7165 10.6529 -7.48797 15.1774 10.58 -5.84899 15.6051 
11.5071 -12.5762 13.931 12.5772 -15.4452 12.9048 12.1595 -14.1289 13.6575 
10.6755 -5.12125 16.1205 10.9688 -9.84405 14.7877 10.6542 -6.42191 15.634 
10.8101 -8.27734 15.269 11.2368 -11.3858 14.3614 11.8783 -13.363 14.0981 
10.8266 -4.20388 16.796 12.4562 -14.6069 13.6847 10.952 -3.60631 17.3546 
10.7043 -5.57248 16.1007 12.6499 -15.0248 13.5528 10.7817 -7.15184 15.721 
10.9706 -8.99709 15.3639 11.1336 -10.4258 14.8755 10.8009 -4.54119 16.6965 
11.5402 -12.1958 14.5127 12.7397 -15.505 13.3309 12.2639 -14.0572 14.1932 
10.7797 -6.12597 16.1316 10.7955 -4.91136 16.6261 10.947 -7.96751 15.8547 
11.1231 -9.60624 15.4495 11.3337 -11.0517 14.9779 11.939 -13.1222 14.657 
12.5767 -14.562 14.2032 10.9728 -3.83506 17.4698 11.1441 -3.06966 18.2287 
10.8269 -5.33596 16.595 12.789 -14.9738 14.1005 10.9077 -6.82109 16.2398 
11.1157 -8.71199 15.985 11.2773 -10.1588 15.5263 10.9215 -4.25552 17.2637 
12.887 -15.5203 13.7773 11.6051 -11.8286 15.0882 12.338 -13.8805 14.7613 
11.1777 -3.17316 18.4072 10.9052 -5.83986 16.6364 10.9085 -4.65603 17.1407 
11.0737 -7.61877 16.4038 11.2714 -9.32931 16.084 11.4532 -10.7388 15.5943 
12.6511 -14.3919 14.7969 11.9662 -12.7244 15.2256 11.0937 -3.59162 18.0748 
12.9486 -15.1054 14.4288 11.4005 -2.3507 19.373 10.9449 -5.05027 17.1156 
11.0304 -6.48056 16.7538 11.245 -8.36967 16.56 11.4198 -9.87232 16.1512 
12.346 -13.5034 15.3615 11.0313 -4.01633 17.8064 11.6798 -11.413 15.6771 
12.8624 -14.6723 14.9139 13.0484 -15.4944 14.3449 11.3734 -2.64614 19.3078 
11.0249 -5.52008 17.1573 11.1909 -7.23468 16.9277 11.0264 -4.35858 17.7073 
11.403 -8.998 16.6706 12.6449 -13.9935 15.4923 11.5783 -10.405 16.2058 
11.981 -12.2009 15.8031 11.2152 -3.28619 18.6827 13.067 -14.9695 15.0577 
11.6517 -1.55907 20.4996 11.1479 -6.11616 17.2723 11.0624 -4.72746 17.6717 
11.3588 -7.97142 17.0944 12.8916 -14.3681 15.5782 11.5505 -9.53549 16.7433 
11.7709 -10.9883 16.2749 12.3228 -12.9531 15.9744 11.1636 -3.64805 18.4685 
13.186 -15.4336 14.9102 11.4442 -2.54131 19.6885 11.6657 -1.7127 20.6187 
11.1415 -5.17262 17.7007 11.3017 -6.82405 17.441 11.5169 -8.60154 17.2159 
11.1527 -3.98701 18.3371 11.7023 -10.0411 16.8015 12.6492 -13.5711 16.1247 
12.0205 -11.6584 16.3908 13.0664 -14.578 15.7455 11.3692 -2.89667 19.4278 
13.2118 -14.9599 15.5985 11.8783 -0.524262 21.689 11.2627 -5.7353 17.8034 
11.4632 -7.53266 17.6064 11.1822 -4.35468 18.2671 11.6669 -9.14053 17.3015 
11.8781 -10.5697 16.8735 12.3318 -12.4107 16.5503 12.9006 -13.96 16.2793 
11.3171 -3.23475 19.2016 13.3159 -15.3343 15.5372 11.6381 -1.96131 20.5904 
11.4124 -6.40494 17.96 11.2571 -4.79177 18.2681 11.6192 -8.15569 17.7346 
11.8205 -9.64022 17.3754 11.8605 -0.887749 21.6561 11.2964 -3.57896 19.0222 
13.135 -14.3844 16.3028 12.1002 -11.1849 16.9773 12.6464 -13.0647 16.7307 
11.559 -2.36906 20.2885 13.3008 -14.7884 16.2106 12.0786 0.487776 22.7328 
11.3778 -5.33967 18.3493 11.5686 -7.08373 18.1178 11.3146 -3.95433 18.9025 
11.7719 -8.69911 17.8338 11.9946 -10.16 17.4578 12.3762 -11.886 17.131 
11.4969 -2.75643 19.9968 12.9455 -13.6657 16.8277 11.8078 -1.31912 21.4643 
13.4159 -15.2144 16.1157 11.5281 -5.98792 18.492 11.3814 -4.39748 18.8592 
11.7208 -7.69447 18.246 13.1877 -14.1633 16.8303 11.932 -9.21116 17.9242 
11.4637 -3.13804 19.7507 12.0291 -0.0507874 22.5794 12.2071 -10.7498 17.5708 
12.6939 -12.6657 17.2742 11.7361 -1.81572 21.1172 13.3672 -14.6154 16.7473 
12.3106 1.32781 23.6246 11.5 -4.9407 18.9105 11.6833 -6.64894 18.6412 
11.4673 -3.54778 19.5626 11.8742 -8.24246 18.3517 11.6794 -2.27553 20.7731 
12.1135 -9.74332 18.0274 12.9923 -13.3632 17.3448 12.4716 -11.4806 17.7045 
11.9549 -0.638763 22.2746 13.4918 -15.0774 16.6456 11.5236 -4.00484 19.4708 
11.6532 -5.58183 19.0359 11.6425 -2.72796 20.4541 11.8329 -7.25189 18.7647 
13.2359 -13.9342 17.325 12.0401 -8.77003 18.455 11.8853 -1.24972 21.8726 
12.3331 -10.368 18.1521 12.2254 0.687834 23.3916 12.7705 -12.3012 17.8214 
13.4196 -14.4308 17.2408 11.6431 -3.1657 20.226 11.6369 -4.55044 19.4853 
11.8353 -1.8513 21.4396 11.8121 -6.24053 19.1768 12.5286 2.05359 24.3115 
11.985 -7.80255 18.8688 12.233 -9.33841 18.5738 13.0528 -13.0611 17.8601 
12.1098 -0.0195423 22.9865 12.596 -11.1267 18.2919 13.5501 -14.9229 17.1366 
12.0028 -0.852389 22.4205 11.8202 -2.34505 21.1169 11.6917 -3.63552 20.0962 
11.7921 -5.19242 19.5875 13.286 -13.6891 17.8142 11.9627 -6.84497 19.2943 
12.1535 -8.34875 18.9733 12.467 -10.0062 18.724 12.8776 -11.9691 18.3947 
12.4258 1.2723 24.0317 13.4657 -14.2262 17.7197 12.2124 0.191365 23.3432 
11.9779 -1.45367 22.0414 11.8335 -2.80648 20.8787 11.7966 -4.18467 20.0732 
11.9574 -5.85858 19.7189 12.1131 -7.40272 19.3909 13.1344 -12.7579 18.4016 
12.7004 2.75296 24.8125 12.3548 -8.94779 19.103 12.7387 -10.803 18.8906 
13.5977 -14.7483 17.6049 12.4599 1.1347 24.1138 12.1397 -0.472062 22.947 
11.9902 -1.96834 21.7451 11.8827 -3.29152 20.7254 13.3467 -13.4242 18.3241 
11.9492 -4.82666 20.1465 12.1122 -6.47421 19.8304 12.28 -7.96094 19.4893 
13.0105 -11.6603 18.9981 12.6031 -9.6577 19.2807 12.6758 2.19703 24.7341 
13.5144 -13.9958 18.2098 12.1258 -1.05193 22.6177 12.3745 0.517883 23.8028 
12.0252 -2.4568 21.5107 11.9802 -3.84624 20.6704 12.119 -5.49945 20.2632 
12.2618 -7.0417 19.9196 13.2416 -12.4552 18.983 12.4833 -8.57991 19.6208 
12.8879 -10.4957 19.4844 12.8558 3.54888 25.2465 13.6413 -14.5515 18.0678 
12.6335 1.5908 24.5603 12.1533 -1.58931 22.339 12.3114 -0.0795052 23.4735 
12.0848 -2.96367 21.3461 13.4268 -13.1397 18.8748 12.126 -4.48503 20.7133 
12.2793 -6.12763 20.3691 12.4248 -7.6087 20.0087 13.1573 -11.3662 19.6125 
12.7389 -9.32195 19.8155 12.8229 2.77188 25.1321 13.5745 -13.7349 18.7364 
12.5654 0.945548 24.2784 12.2916 -0.657921 23.1637 12.2086 -2.1096 22.1113 
12.181 -3.52833 21.2698 12.2957 -5.15667 20.8111 12.4301 -6.70767 20.4529 
13.3695 -12.1544 19.5944 12.6231 -8.23833 20.1329 13.0323 -10.1946 20.0493 
13.6867 -14.3317 18.5399 12.9953 4.30639 25.6169 12.7837 2.0457 24.9353 
12.5054 0.326225 23.9695 12.3194 -1.21944 22.8923 13.5291 -12.8386 19.4703 
12.2856 -2.64285 21.9468 12.3196 -4.16251 21.2875 12.4602 -5.7932 20.9103 
12.5885 -7.2834 20.5337 13.3019 -11.0758 20.2049 12.8743 -8.99644 20.3264 
12.9497 3.35957 25.4779 13.6532 -13.4414 19.3168 12.7377 1.35707 24.6773 
12.4772 -0.276579 23.6682 12.3857 -1.77007 22.6726 12.3889 -3.2205 21.8629 
12.4852 -4.82576 21.3671 12.6135 -6.38558 20.9912 13.5037 -11.8527 20.2042 
12.7763 -7.91758 20.6439 13.1641 -9.88587 20.5706 13.7383 -14.0911 19.026 
13.1418 5.00683 26.004 12.9109 2.51917 25.2669 12.6948 0.7074 24.3958 
12.4966 -0.86715 23.4016 12.4793 -2.32859 22.5169 13.6457 -12.5255 20.0895 
12.5247 -3.85037 21.8679 12.6515 -5.46309 21.459 12.7677 -6.97092 21.0652 
13.4298 -10.7708 20.7484 13.0107 -8.67359 20.8192 13.7962 -13.8373 19.5152 
13.2824 -9.55624 21.0504 12.9416 -7.60496 21.1599 12.8068 -6.0641 21.5388 
12.6853 -4.50194 21.9361 12.8823 1.76736 25.0202 12.6712 0.076971 24.1152 
12.595 -2.91728 22.4404 12.564 -1.44733 23.1907 13.0735 3.95225 25.8162 
13.6258 -11.534 20.7795 13.7508 -13.1196 19.9474 13.1509 -8.34431 21.3063 
13.5361 -10.4349 21.2379 12.9573 -6.65711 21.609 12.8499 -5.1346 22.0239 
12.7341 -3.5419 22.4487 13.7586 -12.1818 20.7031 12.6674 -2.02732 23.0507 
12.6867 -0.542191 23.8634 12.8627 1.07716 24.7624 13.0241 3.00941 25.5796 
13.3059 5.66124 26.464 13.8632 -13.5532 20.0358 13.3922 -9.19862 21.5057 
13.1167 -7.28783 21.6894 13.7266 -11.1855 21.3055 13.0054 -5.73919 22.1045 
12.8923 -4.18208 22.5186 12.7952 -2.62146 22.9942 12.7501 -1.14991 23.6678 
12.8575 0.414614 24.5091 13.0031 2.18313 25.3306 13.8525 -12.7345 20.6116 
13.2101 4.55448 26.1895 13.2979 -8.00275 21.8048 13.6245 -10.0586 21.6875 
13.1524 -6.33604 22.1743 13.0542 -4.80834 22.6112 12.9418 -3.23889 23.0214 
[...]
POINT_DATA 724
VECTORS velocity double
0.957237 -1.41154 1.33877 1.14139 -1.0206 1.46501 0.813095 -2.04324 1.14559 
1.35461 -0.782372 1.47471 0.699786 -2.78 0.963625 0.829624 -1.93121 1.09681 
1.54324 -0.54786 1.3626 0.591202 -3.62104 0.807319 0.952477 -1.53701 1.20293 
0.71256 -2.54966 0.911739 1.11587 -1.3028 1.26224 1.32621 -1.11506 1.26874 
1.65534 -0.299467 1.19235 0.61356 -3.24754 0.763471 0.494866 -4.53282 0.680624 
0.767548 -2.16295 0.92269 1.48165 -1.0373 1.15357 0.888339 -1.79534 0.997204 
0.523333 -4.04303 0.64988 0.639212 -2.8538 0.730841 1.71126 -0.0581701 1.00159 
0.415101 -5.5028 0.546617 1.09639 -1.56912 1.04539 1.62767 -0.832429 1.00724 
0.450106 -4.92805 0.568947 0.540561 -3.64402 0.59971 0.686892 -2.4562 0.735038 
1.32096 -1.50846 0.962859 1.73031 0.148238 0.809171 0.789047 -2.10104 0.785388 
0.353483 -6.29518 0.412081 0.4664 -4.55498 0.535807 0.564168 -3.20882 0.56752 
1.71637 -0.59912 0.836663 0.404487 -5.58966 0.479046 0.945518 -1.93111 0.802703 
1.53776 -1.35006 0.82097 0.602574 -2.79595 0.563494 0.487004 -4.07668 0.497877 
0.288455 -7.03273 0.272407 1.72723 0.314278 0.618871 1.75997 -0.332112 0.666923 
1.16616 -1.89765 0.750457 0.348302 -6.38998 0.369733 0.67325 -2.46253 0.58252 
0.439091 -5.05911 0.487213 0.506695 -3.6044 0.465171 1.69088 -1.03335 0.655859 
0.793337 -2.27822 0.590509 0.391951 -5.93289 0.420447 0.467783 -4.5171 0.479118 
0.532866 -3.17985 0.450204 1.43481 -1.77427 0.64587 1.71384 0.420333 0.465801 
0.286655 -7.09789 0.249943 0.225227 -7.64754 0.162894 1.77045 -0.412712 0.51454 
0.580237 -2.83507 0.451229 1.00313 -2.22663 0.571658 0.441457 -5.41914 0.475338 
0.486338 -4.013 0.462114 1.66259 -1.33712 0.521809 0.32836 -6.74527 0.302674 
1.7666 -0.114339 0.388808 0.67044 -2.60402 0.45784 0.502628 -3.56621 0.448532 
0.484949 -4.88409 0.527238 1.32238 -2.11773 0.519888 0.384145 -6.30204 0.374894 
0.243294 -7.53665 0.177843 0.180172 -8.03214 0.118946 1.69247 0.499431 0.318218 
1.74375 -0.942009 0.419613 0.531571 -3.1928 0.443223 0.853734 -2.48727 0.465803 
0.509434 -4.37832 0.560349 0.453074 -5.7709 0.47499 0.293413 -7.15874 0.234699 
1.56414 -1.79936 0.444854 1.76461 -0.596166 0.338578 0.157815 -8.19261 0.150606 
0.214043 -7.78959 0.153377 1.74747 -0.023098 0.278505 0.593572 -2.89772 0.446566 
0.518801 -3.91541 0.569916 0.519295 -5.21199 0.59805 0.364948 -6.66788 0.32226 
1.13922 -2.41862 0.466259 1.66693 0.542509 0.210769 1.69115 -1.34133 0.386447 
0.271776 -7.37164 0.205907 0.53011 -3.5051 0.56522 0.45503 -6.08634 0.453331 
0.556398 -4.68724 0.704042 0.720173 -2.69886 0.461776 1.4374 -2.1328 0.463996 
0.182765 -8.00355 0.187177 1.74388 -0.707494 0.329167 0.168147 -8.07432 0.329727 
0.351948 -6.87407 0.291545 1.72639 -0.0835315 0.257676 0.545304 -5.46871 0.634686 
0.560189 -4.19818 0.751331 0.560944 -3.15319 0.559018 0.214043 -7.7459 0.186748 
0.959958 -2.56938 0.499197 1.63962 0.558538 0.16834 1.64216 -1.48947 0.449587 
0.453188 -6.27788 0.430018 0.266437 -7.39318 0.216558 0.595884 -4.90412 0.810748 
0.553106 -3.7485 0.750738 0.635984 -2.8528 0.560221 1.30924 -2.2708 0.559932 
1.70489 -0.791918 0.411056 0.192108 -7.84671 0.328963 0.227607 -7.69249 0.706628 
0.346469 -6.937 0.286755 1.69225 -0.169656 0.337551 0.553592 -5.62711 0.63233 
0.594032 -4.38363 0.898379 0.554799 -3.33768 0.72803 0.210661 -7.6491 0.261975 
1.60834 0.565358 0.194082 0.812157 -2.60751 0.589601 1.54959 -1.61916 0.595849 
0.246689 -7.5044 0.732399 0.445285 -6.37084 0.411153 0.259488 -7.34054 0.255584 
0.608614 -5.01674 0.844451 0.569585 -3.89466 0.903702 0.584954 -2.95429 0.700277 
1.62817 -0.935229 0.583498 1.11156 -2.32743 0.675864 0.215012 -7.51674 0.518494 
1.63452 0.0665504 0.393139 0.437297 -7.18648 1.42521 0.334142 -6.93496 0.300614 
0.541348 -5.70834 0.602558 0.600491 -4.46231 0.961757 0.547713 -3.44158 0.869033 
1.36807 -1.78763 0.760875 0.217692 -7.41096 0.383973 0.678999 -2.6147 0.696944 
1.61203 -0.47317 0.589545 1.55777 0.580849 0.303757 0.388557 -7.10621 1.25194 
0.425801 -6.40022 0.399879 0.590762 -5.05027 0.815159 0.255371 -7.18013 0.34501 
0.563592 -3.94728 0.979065 1.46094 -1.19773 0.797722 0.543272 -3.01952 0.823606 
0.873781 -2.30776 0.756857 0.252789 -7.19454 0.778935 1.55398 0.0237148 0.583887 
0.827015 -6.86158 2.19551 0.510667 -5.73631 0.563767 0.320042 -6.84118 0.353779 
0.576659 -4.45976 0.947474 1.47765 -0.650299 0.792342 0.526713 -3.47732 0.947458 
0.574727 -2.62447 0.791426 1.09436 -1.89518 0.855863 0.235032 -7.11058 0.611193 
1.48667 0.613672 0.455304 0.452942 -6.91345 1.42101 0.815101 -6.80153 2.12217 
0.400605 -6.35708 0.416534 0.548521 -5.03986 0.75529 0.533319 -3.93055 0.982208 
0.257479 -6.94722 0.513782 0.501016 -3.04054 0.899971 1.23391 -1.32182 0.910287 
0.668379 -2.26238 0.804146 1.43072 -0.268669 0.794312 0.352054 -6.86375 1.16169 
1.42969 0.205204 0.702351 1.17788 -6.47557 2.86895 0.470391 -5.71663 0.542198 
0.527976 -4.41327 0.887825 0.309623 -6.67876 0.468199 0.489084 -3.45369 0.964983 
0.495106 -2.62068 0.856174 0.830454 -1.87985 0.870978 1.25528 -0.803412 0.909957 
0.301277 -6.79568 0.948369 1.37379 0.665633 0.609101 0.730221 -6.72916 1.95845 
0.493228 -5.00628 0.701598 0.377347 -6.25973 0.47988 0.48127 -3.86866 0.937449 
0.452666 -3.00873 0.928337 1.10722 -6.56222 2.65308 0.295761 -6.68078 0.781553 
1.26613 -0.25289 0.861543 0.528005 -2.2129 0.837612 0.962361 -1.40047 0.921487 
0.575667 -6.67116 1.65691 1.26876 0.230686 0.786436 1.32058 -6.212 3.31862 
0.432078 -5.66433 0.55764 0.463957 -4.35208 0.821793 0.3254 -6.47686 0.665079 
0.43401 -3.38308 0.938432 0.429209 -2.57289 0.89006 0.61586 -1.8247 0.86323 
0.467394 -6.59711 1.37823 1.04602 -0.81186 0.908431 0.987095 -6.59448 2.39258 
1.23336 0.711373 0.686385 0.438337 -4.9654 0.678782 0.374764 -6.12831 0.608186 
0.413477 -3.7886 0.876746 1.08002 -0.252724 0.850358 0.394085 -2.92681 0.920381 
0.412019 -6.49162 1.13677 1.23236 -6.37319 2.99238 0.430618 -2.14577 0.868759 
0.745498 -1.3699 0.894201 0.837968 -6.58823 2.08506 1.09419 0.248771 0.775935 
1.43562 -6.33422 3.66446 0.411026 -5.59653 0.623893 0.397521 -4.29833 0.779018 
0.39999 -6.31655 0.937355 0.364424 -3.28908 0.891258 0.70899 -6.5336 1.78407 
0.365731 -2.47924 0.902597 0.842212 -0.815119 0.863283 0.481249 -1.73709 0.878733 
1.13257 -6.47029 2.68389 1.07603 0.734268 0.680626 0.416848 -6.01781 0.803003 
0.398271 -4.93265 0.697161 0.608851 -6.42727 1.48914 0.341212 -3.71789 0.829362 
0.892591 -0.26054 0.789772 0.324331 -2.81948 0.89179 1.0285 -6.53146 2.38346 
0.36076 -2.0395 0.904501 1.30853 -6.43253 3.23865 0.576592 -1.31517 0.883068 
0.916677 0.244653 0.707551 0.552751 -6.25492 1.23958 0.425047 -5.54807 0.744156 
0.918395 -6.53322 2.06654 0.342714 -4.26907 0.770618 1.53996 -6.49707 3.89573 
0.28985 -3.20416 0.848069 0.299266 -2.35753 0.901214 0.661305 -0.809753 0.818962 
1.20762 -6.46629 2.86813 0.396348 -1.6406 0.932198 0.912198 0.728347 0.613473 
1.11968 -6.52384 2.51068 0.830938 -6.45701 1.78375 0.523937 -5.97965 1.04198 
0.386958 -4.93088 0.756007 0.713401 -0.280319 0.716058 0.278317 -3.67927 0.808961 
0.250483 -2.72017 0.859889 0.302523 -1.92036 0.945719 0.461407 -1.25456 0.922003 
1.36967 -6.63001 3.39275 0.742152 0.216562 0.614077 1.23262 -6.56774 2.87458 
1.06839 -6.56355 2.24753 0.757609 -6.30092 1.52382 0.488653 -5.55437 0.908715 
0.312008 -4.28171 0.792774 0.223572 -3.15392 0.823353 0.516258 -0.799768 0.813092 
1.65182 -6.42773 4.06512 0.231005 -2.24909 0.891995 0.344773 -1.55265 1.02128 
0.74891 0.694872 0.512734 1.33584 -6.74148 3.22091 1.18742 -6.59638 2.58631 
1.02164 -6.53853 2.00414 0.687367 -6.04111 1.28892 0.552955 -0.307794 0.662841 
0.413849 -4.98031 0.84936 0.236617 -3.68745 0.812499 0.184086 -2.66071 0.83652 
0.394688 -1.20551 1.01878 0.24863 -1.82397 0.981331 1.48617 -6.69917 3.6657 
0.576855 0.169737 0.524809 1.17069 -6.64397 2.35913 1.27555 -6.75579 2.90233 
0.958787 -6.42165 1.75875 0.600303 -5.64103 1.09578 0.313043 -4.34855 0.837599 
0.17677 -3.15391 0.816422 0.41662 -0.790334 0.869065 0.168563 -2.18666 0.878717 
0.309291 -1.49836 1.11679 1.80817 -6.06035 4.20337 0.591621 0.639232 0.404242 
1.37598 -6.87859 3.28734 1.15475 -6.65659 2.1477 1.2474 -6.76687 2.63967 
0.867074 -6.18616 1.51162 0.424298 -0.337145 0.660882 0.479429 -5.095 0.967667 
0.223024 -3.75052 0.831299 0.13549 -2.65568 0.823149 0.358517 -1.18366 1.14075 
0.197695 -1.77811 0.996332 1.55592 -6.57335 3.74322 0.430324 0.111803 0.470005 
1.31863 -6.95682 2.95975 1.2407 -6.79891 2.42029 1.11191 -6.58303 1.92662 
0.736629 -5.80295 1.2811 0.347003 -4.47405 0.900952 0.155771 -3.20752 0.820111 
0.358497 -0.7895 0.974565 0.120325 -2.18326 0.862183 0.274124 -1.49212 1.17562 
0.447391 0.568621 0.312948 1.96396 -5.55806 4.24586 1.4093 -6.90008 3.33632 
1.29552 -6.98815 2.68592 1.23722 -6.82161 2.22358 0.336827 -0.365186 0.723119 
1.01842 -6.37955 1.68759 0.571425 -5.27037 1.09965 0.238715 -3.86697 0.862112 
0.11031 -2.70398 0.815299 0.327424 -1.19723 1.22815 0.152008 -1.78945 0.982193 
1.63878 -6.28079 3.79935 0.315852 0.0520256 0.477558 1.34419 -7.08211 2.99809 
1.29003 -7.01626 2.4546 1.20704 -6.77531 2.02402 0.864487 -6.01374 1.44474 
0.407278 -4.64995 0.982716 0.161464 -3.30899 0.831719 0.320315 -0.807066 1.07531 
0.0911632 -2.23419 0.841413 0.230881 -1.52841 1.17138 0.326395 0.492117 0.262548 
2.08161 -5.09767 4.20679 1.44212 -6.78998 3.377 1.32345 -7.18023 2.71442 
1.28613 -7.03723 2.25428 1.11915 -6.59933 1.80474 0.283433 -0.395032 0.819981 
0.669232 -5.48765 1.23413 0.279654 -4.02745 0.910082 0.109264 -2.79586 0.811803 
0.284389 -1.24536 1.241 0.114685 -1.84796 0.940839 0.237492 0.419037 0.265491 
0.180469 -1.59228 1.10695 0.0818501 -2.32593 0.818912 0.190764 -3.44835 0.858519 
0.48167 -4.86131 1.08356 1.35438 -7.10272 3.02316 1.31928 -7.24284 2.47039 
0.9595 -6.25053 1.57215 1.25704 -7.00146 2.06439 1.72027 -5.88828 3.81003 
0.278822 -0.856505 1.11868 0.240263 -0.000945768 0.54789 0.0887749 -1.93872 0.883825 
0.227309 -1.3199 1.17941 0.129866 -2.92023 0.821442 0.338203 -4.21957 0.985126 
0.753784 -5.7301 1.36022 0.242402 -0.450498 0.898364 1.17097 -6.84087 1.86497 
1.31151 -7.27908 2.25884 1.32862 -7.29303 2.72847 1.47606 -6.55854 3.39914 
2.14461 -4.74158 4.16771 0.175561 0.348642 0.317592 0.129782 -1.67163 1.00474 
0.0912677 -2.44511 0.806325 0.224159 -0.941909 1.08778 0.238691 -3.61664 0.916174 
0.557042 -5.09647 1.20158 1.0149 -6.50615 1.65721 1.27524 -7.25146 2.06777 
1.32478 -7.42204 2.47397 1.35434 -7.01958 3.03348 0.193666 -0.0777287 0.651206 
1.78453 -5.46628 3.77515 0.0774213 -2.04994 0.831105 0.162605 -1.40957 1.06576 
0.168857 -3.07024 0.863533 0.406431 -4.43664 1.09638 0.814958 -5.99263 1.46891 
1.18547 -7.09957 1.88331 0.193566 -0.544071 0.911081 1.31318 -7.50247 2.25085 
1.31322 -7.31581 2.72721 1.51032 -6.21949 3.39445 2.14647 -4.43071 4.19298 
0.132362 0.273815 0.400672 0.0878731 -1.76117 0.895585 0.118266 -2.58529 0.826031 
0.158861 -1.05463 0.996403 0.300855 -3.8124 1.02296 0.624899 -5.35594 1.33203 
1.03512 -6.77471 1.7055 1.2681 -7.4998 2.05536 1.30424 -7.52418 2.46531 
1.34909 -6.83222 3.02675 0.149888 -0.167701 0.698461 1.82273 -5.05542 3.73382 
0.0835492 -2.17762 0.810256 0.0997328 -1.50269 0.929468 0.223975 -3.24877 0.962683 
0.479266 -4.6844 1.24798 0.851963 -6.27347 1.55924 0.132609 -0.663536 0.850472 
1.1718 -7.35728 1.88117 1.28163 -7.25067 2.70854 1.28804 -7.66776 2.23914 
1.54207 -5.78687 3.36587 0.0950521 0.184042 0.465562 2.08255 -4.07173 4.21896 
0.0633812 -1.86182 0.814959 0.16239 -2.75207 0.906986 0.09086 -1.1751 0.870518 
0.374967 -4.04586 1.19186 0.683207 -5.64558 1.47156 1.02881 -7.04208 1.73625 
1.23563 -7.70879 2.04138 1.34071 -6.53523 2.99858 1.25787 -7.53526 2.44878 
0.0951764 -0.28603 0.670841 1.83297 -4.63455 3.74596 0.109203 -2.32857 0.853845 
0.0491025 -1.59375 0.805267 0.294451 -3.47021 1.13848 0.554844 -4.97431 1.43744 
0.869768 -6.55908 1.64404 0.0654003 -0.801137 0.744125 1.1355 -7.58732 1.88136 
1.23451 -7.75101 2.22227 1.23973 -7.04292 2.69002 1.55991 -5.33151 3.32912 
0.0490301 0.0643873 0.470556 0.0622204 -1.98262 0.800353 0.223501 -2.96252 1.07299 
1.96466 -3.66962 4.10245 0.0284929 -1.29175 0.739166 0.459417 -4.33154 1.4222 
0.732128 -5.95323 1.6228 1.00392 -7.28309 1.77597 1.17768 -7.85016 2.03477 
1.19083 -7.44883 2.41723 1.3637 -5.92195 3.01287 0.0310495 -0.431856 0.586146 
1.71684 -4.48679 3.58791 0.0204282 -1.69094 0.733833 0.154687 -2.52077 0.988589 
0.378191 -3.74938 1.39073 0.62893 -5.29617 1.65447 -0.000550306 -0.944997 0.620495 
0.873663 -6.81842 1.74516 1.07991 -7.75895 1.90353 1.15587 -7.74851 2.19639 
1.20149 -6.65664 2.66743 -0.00911646 -0.0898184 0.411742 0.086284 -2.14203 0.88301 
1.42102 -5.21338 3.08714 -0.0185355 -1.40025 0.637476 0.298699 -3.23134 1.32362 
0.545849 -4.65617 1.68998 1.8426 -3.35417 3.87121 0.769255 -6.23712 1.79073 
1.1106 -7.24955 2.36604 0.965833 -7.46315 1.84984 1.09662 -7.90778 2.03804 
-0.0355564 -0.595115 0.472492 0.0203298 -1.81411 0.755844 1.67286 -4.07046 3.53695 
0.216281 -2.76933 1.21496 1.17278 -6.12024 2.63952 0.464355 -4.0685 1.68435 
-0.0566335 -1.08213 0.509864 0.689426 -5.59626 1.87723 1.05701 -7.66125 2.15181 
0.865214 -7.00648 1.8798 1.00762 -7.84037 1.96053 -0.0735208 -0.271721 0.312267 
1.39684 -4.8117 3.05831 0.131509 -2.35599 1.06728 -0.0397507 -1.5109 0.609966 
0.376167 -3.53739 1.61707 1.02201 -6.93964 2.28241 0.615251 -4.95456 1.94658 
0.995814 -7.87051 2.04661 0.787205 -6.43731 1.97072 0.915799 -7.53859 1.97065 
1.71839 -3.09968 3.5766 -0.0960046 -0.761692 0.360576 1.11895 -5.63565 2.56313 
0.0478075 -1.98513 0.888277 0.281791 -3.05373 1.48878 1.59757 -3.70288 3.37109 
0.940403 -7.47624 2.07708 0.531416 -4.35363 1.95297 -0.0921139 -1.20688 0.452071 
0.720613 -5.79953 2.07491 0.920614 -7.7988 2.04991 0.83996 -7.07143 2.0459 
-0.134441 -0.468079 0.206005 1.36307 -4.42989 3.00374 -0.0300368 -1.64772 0.690104 
0.921137 -6.5117 2.16252 0.185358 -2.60954 1.31088 0.434737 -3.80377 1.87926 
0.648857 -5.14677 2.14184 0.876697 -7.71208 2.04428 0.776604 -6.49548 2.14436 
0.850473 -7.46475 2.1237 1.59663 -2.89642 3.25968 -0.138854 -0.917741 0.290669 
1.07003 -5.12199 2.51134 0.0914823 -2.20167 1.09834 0.330287 -3.29674 1.73185 
-0.0979414 -1.3294 0.486912 0.805417 -7.13003 1.95907 1.5097 -3.37937 3.13546 
0.56213 -4.52697 2.13885 0.713617 -5.85338 2.22453 0.816808 -7.60173 2.13577 
0.790614 -6.9675 2.21498 1.32631 -4.02925 2.88957 -0.178342 -0.664821 0.139983 
0.824853 -5.88239 2.05165 0.00445268 -1.82861 0.866525 0.224674 -2.82154 1.52778 
0.46067 -3.96099 2.0541 0.640811 -5.19012 2.25703 0.735316 -7.36486 1.97972 
0.733474 -6.38267 2.28705 0.764229 -7.21319 2.25422 1.47548 -2.72578 2.93216 
-0.150025 -1.06554 0.316865 1.03949 -4.63449 2.46828 -0.0733274 -1.48137 0.62607 
0.351523 -3.44235 1.89368 0.122174 -2.36932 1.28303 0.553282 -4.55411 2.22752 
0.663535 -6.44197 1.7894 0.671072 -5.74738 2.31987 0.714227 -6.68606 2.33655 
0.691036 -7.22507 2.13659 1.41299 -3.09327 2.85367 1.27811 -3.65842 2.70671 
-0.185478 -0.862322 0.186368 0.792314 -5.01322 2.05376 0.24248 -2.95404 1.6743 
0.45185 -3.97616 2.12915 0.598563 -5.09239 2.30469 0.0234185 -1.92489 1.00092 
0.661623 -6.10637 2.37008 0.574097 -6.75937 1.78584 0.653104 -6.79649 2.27801 
1.35216 -2.5748 2.5934 -0.0945678 -1.3708 0.580896 1.09613 -3.94777 2.43453 
0.342432 -3.45327 1.96067 0.513799 -4.45503 2.24023 0.137173 -2.47608 1.40882 
0.602511 -5.50203 2.35716 0.562959 -5.50828 1.65472 0.613012 -6.25844 2.34752 
0.536854 -6.6564 1.95825 1.29319 -3.0305 2.55541 -0.150174 -1.0616 0.365379 
0.0293902 -1.95742 1.07267 0.41752 -3.87404 2.12616 0.824561 -4.35718 2.06102 
0.231868 -2.95574 1.72681 0.534242 -4.88187 2.30052 0.567975 -5.70422 2.35475 
0.515572 -6.24815 2.12078 0.417811 -5.85671 1.48847 1.24303 -2.45611 2.2915 
-0.0522056 -1.54412 0.776677 1.11549 -3.4159 2.28525 0.31395 -3.36072 1.95754 
0.12124 -2.43406 1.42259 0.45582 -4.26698 2.204 0.516813 -5.14977 2.31639 
0.489305 -5.73347 2.19502 0.564036 -4.63935 1.65625 0.364316 -5.90343 1.59592 
1.20691 -2.80907 2.28094 0.210291 -2.88911 1.72933 0.368287 -3.69579 2.07305 
-0.0881956 -1.31811 0.637639 0.917085 -3.69494 1.99174 0.457292 -4.58695 2.23939 
0.456845 -5.21985 2.20333 0.354053 -5.59721 1.76764 0.0236602 -1.92863 1.09806 
0.331831 -4.94062 1.28875 1.1293 -2.34744 1.97556 1.09939 -2.87142 2.04098 
0.116303 -2.43911 1.46085 0.276344 -3.20475 1.91025 0.388585 -4.01961 2.12714 
0.417346 -4.72028 2.16686 0.346486 -5.14803 1.87439 0.62019 -4.08442 1.61607 
0.213729 -5.05594 1.18952 0.188149 -2.79196 1.71468 -0.039224 -1.54762 0.854657 
0.31231 -3.47728 1.98653 0.914798 -3.26267 1.78494 0.369444 -4.21892 2.09406 
0.329687 -4.68542 1.90856 0.191402 -4.89562 1.31354 0.0417342 -2.03884 1.20878 
0.340892 -4.2901 1.21555 1.03213 -2.26846 1.70459 0.11025 -2.42031 1.49248 
1.01425 -2.66602 1.75493 0.233579 -3.00679 1.82819 0.312661 -3.70671 1.98769 
0.194781 -4.53348 1.44117 0.132601 -4.38391 0.920827 0.303334 -4.23731 1.89278 
0.6874 -3.56754 1.47321 0.158464 -2.62163 1.65526 -0.0060311 -1.73724 1.02324 
0.247242 -3.19436 1.84897 0.355994 -3.90627 1.07676 0.0617321 -4.25625 0.899598 
0.190127 -4.12522 1.49974 0.269106 -3.79265 1.84313 0.0463821 -2.07089 1.27818 
0.899221 -2.78694 1.52153 0.927551 -2.20306 1.41198 0.0923087 -2.29667 1.46706 
0.176601 -2.717 1.6849 0.660052 -3.26925 1.23854 0.0952777 -3.95823 0.721912 
0.0530558 -3.94596 0.978128 0.227129 -3.33667 1.76327 0.17622 -3.72316 1.5106 
0.106217 -2.30582 1.50128 0.00576148 -1.80138 1.12146 0.8373 -2.16824 1.1592 
0.806425 -2.66769 1.23699 0.333417 -3.61956 0.845162 0.175472 -2.85912 1.64619 
-0.0210915 -3.77769 0.569065 0.0529806 -3.58033 1.04402 0.156342 -3.33022 1.49343 
0.0455324 -2.00502 1.30991 0.577962 -3.08692 0.943257 0.115271 -2.37774 1.49066 
-0.0537394 -3.47538 0.573833 0.0891475 -3.6519 0.507581 0.131695 -2.93757 1.45384 
0.0471317 -3.20542 1.07475 0.0520489 -1.95329 1.3076 0.739654 -2.15794 0.888045 
0.696786 -2.59619 0.92759 0.00238129 -1.70082 1.12826 0.100677 -2.52742 1.3851 
-0.0576749 -3.11583 0.630743 -0.0620989 -3.48347 0.301344 0.344734 -3.26623 0.584441 
0.0353498 -2.83758 1.07497 0.0648976 -2.11588 1.29046 -0.118658 -3.1534 0.264152 
0.0995344 -3.38469 0.261045 -0.0664231 -2.73124 0.649291 0.546747 -2.71545 0.627216 
0.0248124 -2.4856 1.07 0.0261128 -1.7649 1.16433 -0.00465323 -1.546 1.06516 
0.628863 -2.18308 0.590349 -0.0943465 -3.27803 0.0496133 -0.134092 -2.76304 0.285939 
0.0140174 -2.12435 1.05302 -0.0784693 -2.35045 0.643571 0.36056 -2.88052 0.31022 
-0.00185015 -1.74945 1.00283 -0.159217 -2.93832 -0.0119427 0.0525469 -3.18157 -0.0218161 
0.511167 -2.24117 0.29515 -0.14927 -2.34274 0.281316 -0.0201898 -1.41678 0.933545 
-0.0794329 -2.01224 0.666191 -0.178841 -2.52577 0.000241021 -0.123698 -3.08845 -0.243399 
0.236353 -2.79037 -0.0332758 -0.0689032 -1.67103 0.711897 -0.166182 -1.91858 0.25489 
0.379284 -2.32601 -0.0042207 -0.0634799 -1.33331 0.711135 -0.188452 -2.78501 -0.293949 
0.0107165 -2.91078 -0.370584 -0.195677 -2.07976 -0.0200502 -0.149127 -1.57388 0.36804 
-0.201541 -2.37459 -0.251501 0.188295 -2.45195 -0.385998 -0.154537 -2.8653 -0.593776 
-0.141305 -1.2167 0.378947 -0.203996 -1.51565 0.063052 -0.213934 -1.68773 -0.121797 
-0.219312 -2.64223 -0.609457 -0.209214 -1.94418 -0.295488 -0.0288072 -2.56633 -0.756876 
-0.209701 -1.1516 0.0459884 -0.218382 -2.28216 -0.511683 -0.212522 -2.57264 -0.990577 
-0.224571 -1.27881 -0.192438 -0.258862 -2.35436 -0.894483 -0.207383 -1.56566 -0.35591 
-0.215419 -1.94474 -0.578876 
