# vtk DataFile Version 3.0
vtk output
ASCII
DATASET POLYDATA
POINTS 724 float
10.472 -10.8098 11.5917 10.747 -11.7197 11.5382 10.2521 -9.90728 11.7623 
11.0543 -12.5807 11.5397 10.1121 -9.13595 12.0544 10.4059 -10.325 11.9532 
11.3666 -13.3282 11.5631 10.0276 -8.40394 12.4811 10.6216 -11.072 11.9216 
10.2683 -9.64313 12.2058 10.8714 -11.8202 11.9375 11.1513 -12.5762 11.9298 
11.6275 -13.8785 11.6112 10.1683 -8.98786 12.5268 10.0046 -7.70699 13.0158 
10.4689 -10.3417 12.2856 11.4051 -13.1292 12.0267 10.6991 -11.1165 12.2949 
10.1144 -8.3326 12.9671 10.3296 -9.60732 12.5931 11.8563 -14.3067 11.6967 
10.0556 -7.04461 13.6191 11.0013 -11.9995 12.3231 11.6745 -13.6698 12.0853 
10.1059 -7.63973 13.4845 10.2445 -8.90074 13.0004 10.5105 -10.2721 12.6478 
11.3246 -12.7765 12.4374 12.0614 -14.6454 11.83 10.7226 -11.0055 12.6664 
10.1546 -6.55822 14.1394 10.2055 -8.13765 13.5229 10.3925 -9.51644 13.0284 
11.9194 -14.0969 12.1763 10.1905 -7.24758 14.0202 10.9789 -11.7596 12.7408 
11.6562 -13.4583 12.5345 10.5547 -10.1526 13.0602 10.3298 -8.74748 13.517 
10.2955 -6.1326 14.6986 12.256 -14.9228 12.0235 12.1463 -14.459 12.2864 
11.2903 -12.5378 12.8677 10.2727 -6.6826 14.5165 10.7381 -10.8064 13.0993 
10.2968 -7.86457 14.0534 10.4715 -9.37907 13.5252 11.976 -14.017 12.6253 
10.9683 -11.502 13.1949 10.3311 -7.14028 14.5505 10.4298 -8.53794 14.066 
10.6221 -9.99722 13.5526 11.653 -13.3105 12.977 12.4171 -15.1149 12.2425 
10.3992 -6.20708 15.0515 10.4599 -5.74288 15.3135 12.2924 -14.5639 12.5916 
10.7899 -10.6103 13.6052 11.2712 -12.2893 13.3279 10.4291 -7.69231 14.5993 
10.578 -9.21172 14.0894 12.0368 -13.9989 13.0189 10.4259 -6.52589 15.08 
12.492 -14.8498 12.7311 10.9995 -11.2597 13.706 10.7296 -9.84088 14.1297 
10.5632 -8.35125 14.6492 11.6637 -13.1656 13.4349 10.4755 -6.92105 15.108 
10.543 -5.88533 15.6111 10.614 -5.38345 15.9203 12.5927 -15.2796 12.5481 
12.3038 -14.3898 13.1068 10.89 -10.4308 14.1936 11.2832 -12.0282 13.8308 
10.7185 -9.04509 14.7102 10.5658 -7.43895 15.156 10.5617 -6.20701 15.628 
12.0325 -13.8186 13.5598 12.5266 -14.6731 13.2437 10.761 -5.0056 16.5458 
10.6774 -5.58409 16.1629 12.6873 -15.0108 13.0944 11.0798 -11.0339 14.2862 
10.8747 -9.68479 14.778 10.7029 -8.09743 15.2382 10.6029 -6.61231 15.6324 
11.6431 -12.8509 13.9822 12.7671 -15.3936 12.9274 12.3541 -14.2752 13.6983 
10.6851 -5.94929 16.1366 11.03 -10.2551 14.8506 10.6915 -7.12696 15.6782 
10.8686 -8.825 15.3451 11.3241 -11.7017 14.4136 12.0471 -13.5988 14.1482 
10.8241 -5.08105 16.8103 12.6554 -14.686 13.7194 10.948 -4.47642 17.3834 
10.7259 -6.35397 16.128 12.8466 -15.0393 13.58 10.8343 -7.79058 15.7888 
11.0326 -9.48758 15.4478 11.2005 -10.7973 14.939 10.8032 -5.39723 16.7121 
11.6561 -12.4917 14.5689 12.9267 -15.4528 13.3487 12.4533 -14.2192 14.2414 
10.8169 -6.8494 16.1765 10.8055 -5.73659 16.6463 11.01 -8.54076 15.9454 
11.1867 -10.0459 15.5351 11.411 -11.3882 15.0425 12.0937 -13.3752 14.7192 
12.7714 -14.65 14.2473 10.9731 -4.68407 17.5005 11.1483 -3.88152 18.2967 
10.8487 -6.11965 16.6246 12.9818 -14.9976 14.1368 10.9613 -7.47682 16.3101 
11.1816 -9.22421 16.0876 11.3431 -10.5526 15.6107 10.9248 -5.09297 17.289 
13.0705 -15.4682 13.798 11.7038 -12.1329 15.1563 12.517 -14.0564 14.8268 
11.1853 -3.96606 18.479 10.9419 -6.56956 16.682 10.9189 -5.46901 17.1671 
11.1382 -8.20549 16.5005 11.3367 -9.78615 16.1885 11.5242 -11.0892 15.6764 
12.8371 -14.4942 14.8609 12.0986 -12.9876 15.3026 11.0984 -4.39648 18.1262 
13.1347 -15.105 14.4718 11.4276 -3.09423 19.5139 10.9662 -5.82746 17.1487 
11.0828 -7.14316 16.8231 11.3117 -8.89172 16.6713 11.4845 -10.2789 16.2529 
12.5049 -13.6988 15.447 11.037 -4.82061 17.8456 11.7627 -11.7221 15.7592 
13.0458 -14.7265 14.979 13.2262 -15.4411 14.3783 11.3966 -3.38608 19.4324 
11.0599 -6.24745 17.2036 11.2534 -7.82521 17.0228 11.0377 -5.14614 17.7442 
11.4677 -9.46156 16.7849 12.8121 -14.1228 15.5815 11.644 -10.7645 16.3033 
12.086 -12.4679 15.8913 11.2249 -4.04781 18.7611 13.2435 -14.9724 15.1227 
11.7236 -2.26907 20.7172 11.1969 -6.778 17.3389 11.0831 -5.48672 17.7116 
11.4229 -8.49424 17.2053 13.0595 -14.4391 15.6667 11.6126 -9.94692 16.8548 
11.8413 -11.3018 16.3691 12.451 -13.1647 16.0723 11.1725 -4.40951 18.5314 
13.3554 -15.3762 14.9612 11.4753 -3.26161 19.8309 11.7376 -2.42032 20.8298 
11.1744 -5.8883 17.7497 11.3593 -7.41216 17.5305 11.5781 -9.06432 17.3315 
11.1654 -4.73942 18.3918 11.7627 -10.4042 16.9084 12.7908 -13.7145 16.2274 
12.1017 -11.926 16.4858 13.2285 -14.609 15.8344 11.3902 -3.61662 19.5453 
13.3739 -14.9427 15.6775 11.9944 -1.1971 21.9726 11.3073 -6.38958 17.8684 
11.5217 -8.05089 17.7116 11.2027 -5.08717 18.3192 11.7246 -9.55027 17.4158 
11.9388 -10.885 16.9758 12.4301 -12.6264 16.6512 13.0432 -14.0462 16.3813 
11.3337 -3.95379 19.2988 13.4722 -15.2699 15.6063 11.7013 -2.66442 20.7862 
11.4637 -6.98648 18.0442 11.2879 -5.48874 18.324 11.6746 -8.61272 17.846 
11.8752 -10.0007 17.4861 11.9691 -1.57456 21.9191 11.314 -4.29346 19.1041 
13.278 -14.4124 16.3995 12.1648 -11.4509 17.077 12.7575 -13.2199 16.8353 
11.6053 -3.0681 20.4555 13.4442 -14.7667 16.2993 12.2146 -0.158937 23.0601 
11.4184 -5.98177 18.4161 11.6196 -7.59463 18.2163 11.3375 -4.65608 18.9746 
11.8234 -9.1021 17.9459 12.0474 -10.4712 17.5644 12.4497 -12.101 17.2319 
11.5321 -3.45117 20.1373 13.0643 -13.7532 16.9297 11.9026 -2.01273 21.7027 
13.556 -15.1433 16.1939 11.573 -6.56089 18.5739 11.4125 -5.07224 18.9282 
11.7684 -8.14325 18.3514 13.3097 -14.1906 16.9258 11.9799 -9.56341 18.0347 
11.4944 -3.82725 19.8684 12.156 -0.718831 22.875 12.26 -11.0103 17.6744 
12.7803 -12.8208 17.376 11.8137 -2.51077 21.3265 13.4908 -14.5904 16.835 
12.4605 0.662428 23.988 11.5384 -5.56898 18.9841 11.7265 -7.15217 18.7353 
11.4988 -4.22645 19.6623 11.9177 -8.63601 18.4592 11.7428 -2.96705 20.954 
12.1587 -10.0449 18.1359 13.0881 -13.4522 17.4417 12.5293 -11.6884 17.8072 
12.0698 -1.32133 22.5411 13.6139 -15.0023 16.7234 11.5596 -4.66188 19.5595 
11.6936 -6.14694 19.1197 11.6958 -3.41194 20.6073 11.8719 -7.69265 18.8652 
13.3367 -13.9623 17.4136 12.0799 -9.11128 18.563 11.9873 -1.94282 22.1111 
12.3775 -10.6172 18.2598 12.3631 0.0107307 23.7121 12.8374 -12.4527 17.9219 
13.5233 -14.4056 17.3209 11.6921 -3.83759 20.3562 11.6771 -5.1686 19.5711 
11.9241 -2.54824 21.6487 11.8488 -6.73835 19.2701 12.6901 1.36609 24.7025 
12.0197 -8.18726 18.9721 12.2704 -9.62691 18.6825 13.1279 -13.1508 17.9519 
12.2364 -0.703103 23.271 12.6433 -11.3243 18.4003 13.6539 -14.8472 17.2072 
12.1177 -1.54746 22.6717 11.8997 -3.03784 21.2999 11.7401 -4.28709 20.2092 
11.8312 -5.75416 19.6774 13.3667 -13.7195 17.8947 11.9942 -7.28075 19.3928 
12.1846 -8.67978 19.0784 12.5041 -10.2418 18.8364 12.9307 -12.1148 18.4991 
12.5709 0.5707 24.3699 13.5499 -14.2034 17.7896 12.3433 -0.505729 23.6292 
12.086 -2.15862 22.2689 11.9063 -3.48802 21.0379 11.8441 -4.80191 20.1759 
11.9905 -6.35627 19.8146 12.1397 -7.78204 19.4918 13.1929 -12.8474 18.4924 
12.8751 2.07074 25.2279 12.3839 -9.22474 19.2113 12.7791 -10.99 19.0086 
13.6832 -14.6752 17.6645 12.6025 0.419123 24.436 12.265 -1.17757 23.2062 
12.093 -2.67615 21.9508 11.9499 -3.95305 20.8638 13.4093 -13.458 18.3984 
11.9914 -5.39285 20.2462 12.1384 -6.91048 19.9295 12.303 -8.28598 19.5922 
13.0551 -11.8001 19.1128 12.6333 -9.88224 19.3972 12.8334 1.48564 25.1061 
13.58 -13.9779 18.2698 12.2482 -1.76918 22.8569 12.5118 -0.202248 24.0936 
12.1217 -3.15802 21.6944 12.0404 -4.47502 20.7925 12.152 -6.00451 20.3638 
12.2824 -7.42124 20.02 13.2882 -12.5439 19.0796 12.5046 -8.85048 19.728 
12.9233 -10.6754 19.6128 13.0505 2.90573 25.6868 13.7092 -14.4838 18.1156 
12.7808 0.858922 24.8928 12.2733 -2.31492 22.56 12.4458 -0.805908 23.7396 
12.1727 -3.64694 21.5079 13.4746 -13.1769 18.9486 12.1755 -5.06541 20.8255 
12.3034 -6.57146 20.4702 12.4414 -7.93373 20.1103 13.1969 -11.5026 19.7404 
12.7626 -9.54135 19.9339 12.9893 2.07334 25.5185 13.6235 -13.7233 18.7901 
12.7082 0.202201 24.578 12.4247 -1.39469 23.4103 12.3238 -2.8344 22.3131 
12.2567 -4.17952 21.4116 12.3322 -5.67731 20.9185 12.4475 -7.09393 20.5537 
13.4089 -12.2426 19.7024 12.6381 -8.50913 20.2385 13.0629 -10.3728 20.1841 
13.7385 -14.2711 18.5776 13.2106 3.71683 26.0717 12.935 1.31088 25.2771 
12.6468 -0.425733 24.2429 12.4511 -1.9666 23.1223 13.5666 -12.879 19.5507 
12.3913 -3.35338 22.1277 12.3793 -4.76574 21.4139 12.4857 -6.25175 21.0148 
12.6013 -7.61454 20.6344 13.3372 -11.2128 20.3421 12.892 -9.21748 20.4434 
13.1275 2.69267 25.8779 13.6891 -13.4363 19.3711 12.8837 0.599686 24.9844 
12.6181 -1.03883 23.9206 12.5134 -2.5204 22.8859 12.4791 -3.90018 22.0226 
12.5282 -5.36892 21.4835 12.6308 -6.78471 21.0931 13.5381 -11.9425 20.3231 
12.787 -8.19471 20.7472 13.1891 -10.0682 20.7049 13.7763 -14.0387 19.0579 
13.3723 4.46409 26.4608 13.0667 1.79623 25.618 12.8402 -0.0659619 24.6754 
12.6363 -1.64027 23.6369 12.5974 -3.06815 22.7115 13.6767 -12.5691 20.1805 
12.5952 -4.48186 22.0091 12.681 -5.94225 21.5688 12.7795 -7.31345 21.1652 
13.4596 -10.9131 20.8867 13.0235 -8.90186 20.9316 13.8241 -13.7927 19.5472 
13.3012 -9.7465 21.1776 12.9504 -7.89312 21.2603 12.8266 -6.48105 21.6435 
12.7363 -5.07214 22.0638 13.0297 1.008 25.3337 12.8169 -0.710889 24.3724 
12.6964 -3.62762 22.6149 12.6994 -2.22555 23.4104 13.263 3.32761 26.2252 
13.6551 -11.6292 20.9029 13.7779 -13.1204 20.0094 13.1601 -8.58363 21.4123 
13.5592 -10.5863 21.3695 12.9704 -7.01513 21.7097 12.8855 -5.63835 22.1422 
12.8141 -4.20408 22.6044 13.7846 -12.2316 20.8025 12.7929 -2.79692 23.2538 
12.8312 -1.34325 24.1024 13.0092 0.292014 25.0472 13.1854 2.31187 25.9388 
13.544 5.15159 26.9182 13.8838 -13.5165 20.0735 13.4051 -9.39919 21.6219 
13.1256 -7.59035 21.7879 13.7494 -11.2907 21.4253 13.03 -6.17755 22.2155 
12.9515 -4.78174 22.6598 12.9037 -3.36334 23.1797 12.8897 -1.95761 23.8911 
13.0047 -0.392572 24.7707 13.1512 1.43337 25.6492 13.8739 -12.7439 20.6848 
13.4089 3.97352 26.601 13.3051 -8.25563 21.9046 13.6403 -10.2215 21.807 
13.1691 -6.71271 22.2792 13.0971 -5.33926 22.7421 13.0291 -3.93308 23.1905 
[...]
POINT_DATA 724
VECTORS velocity double
0.971549 -1.64843 1.3194 1.17738 -1.20804 1.45472 0.799854 -2.32783 1.09676 
1.40899 -0.924775 1.45711 0.651171 -3.11433 0.861884 0.83771 -2.19968 1.06637 
1.60809 -0.655047 1.33118 0.489621 -4.02022 0.620765 0.986732 -1.7655 1.19023 
0.692881 -2.85884 0.84762 1.17342 -1.48695 1.25307 1.40192 -1.25129 1.25014 
1.72217 -0.388583 1.15412 0.553468 -3.60762 0.640065 0.315882 -4.99192 0.395089 
0.785223 -2.43663 0.896378 1.57088 -1.13343 1.12386 0.939622 -2.02607 0.991048 
0.403617 -4.46807 0.441419 0.620881 -3.1746 0.663055 1.77765 -0.143099 0.964114 
0.137778 -5.96762 0.192809 1.18019 -1.74117 1.04097 1.71907 -0.894306 0.968375 
0.244907 -5.40591 0.272441 0.468994 -4.0271 0.458789 0.709452 -2.74104 0.708611 
1.43151 -1.61571 0.946174 1.79708 0.0585352 0.776817 0.849834 -2.34556 0.782932 
-0.00315325 -6.69673 0.050669 0.313634 -5.01586 0.299284 0.540863 -3.54746 0.488543 
1.80474 -0.645168 0.796423 0.136334 -6.07211 0.162282 1.04223 -2.12564 0.806597 
1.6565 -1.39189 0.789066 0.624155 -3.09844 0.530268 0.395159 -4.49128 0.335148 
-0.131494 -7.31519 -0.0548071 1.79616 0.214378 0.593248 1.84357 -0.381728 0.630846 
1.2963 -2.02316 0.744697 -0.000930569 -6.80138 0.0533018 0.735774 -2.73239 0.577113 
0.246695 -5.55256 0.237207 0.471001 -3.96842 0.369316 1.80064 -1.04044 0.617633 
0.895877 -2.5078 0.596801 0.104832 -6.41258 0.144098 0.351011 -4.96965 0.305394 
0.546445 -3.50758 0.403766 1.5785 -1.8088 0.620557 1.78599 0.308731 0.445438 
-0.121673 -7.37639 -0.0254466 -0.235178 -7.77213 -0.10254 1.8598 -0.448529 0.480756 
0.638199 -3.1375 0.436807 1.14575 -2.38933 0.572681 0.229728 -5.93162 0.256241 
0.434986 -4.40848 0.357712 1.78795 -1.3153 0.48447 -0.0355503 -7.10841 0.0529338 
1.85093 -0.178714 0.36094 0.771456 -2.87822 0.460753 0.505579 -3.92364 0.395716 
0.354077 -5.37069 0.377671 1.48592 -2.16426 0.499429 0.078946 -6.75257 0.159363 
-0.187044 -7.68335 -0.0335445 -0.295862 -7.99048 -0.0853172 1.76905 0.372141 0.301593 
1.85221 -0.927141 0.38254 0.581469 -3.53182 0.425363 0.999169 -2.70365 0.470873 
0.44957 -4.80581 0.476957 0.225495 -6.2867 0.309481 -0.0912198 -7.41336 0.0501003 
1.71274 -1.76167 0.409662 1.86169 -0.611366 0.304813 -0.313393 -7.97113 -0.00916107 
-0.219671 -7.7995 0.000170857 1.83283 -0.10517 0.2528 0.687637 -3.22042 0.451386 
0.515451 -4.30212 0.536295 0.380355 -5.72879 0.498074 0.0419693 -7.04693 0.169587 
1.31451 -2.52447 0.457667 1.74791 0.396879 0.194864 1.81399 -1.29259 0.348349 
-0.113532 -7.52225 0.0811072 0.573463 -3.87777 0.56628 0.214474 -6.57478 0.347587 
0.495059 -5.14618 0.667305 0.856976 -2.98297 0.477992 1.60201 -2.11067 0.439615 
-0.253982 -7.78953 0.0644641 1.84241 -0.713675 0.29508 -0.272625 -7.59169 0.183934 
0.0284085 -7.1729 0.199473 1.81303 -0.169565 0.230933 0.402223 -5.9997 0.591655 
0.555723 -4.60911 0.759532 0.645712 -3.51962 0.58494 -0.194479 -7.66284 0.0873702 
1.13175 -2.75339 0.513732 1.72346 0.394831 0.151375 1.76664 -1.4282 0.418572 
0.212418 -6.71668 0.38304 -0.102003 -7.45405 0.143691 0.53661 -5.38956 0.825514 
0.592314 -4.14498 0.789511 0.759769 -3.19506 0.603008 1.47671 -2.28064 0.559727 
1.80098 -0.789068 0.382492 -0.214651 -7.44095 0.218677 -0.186724 -6.92084 0.519576 
0.0352802 -7.15369 0.246586 1.77675 -0.251181 0.313958 0.411143 -6.14726 0.641893 
0.590509 -4.81344 0.949159 0.631186 -3.7334 0.789368 -0.174274 -7.42787 0.187844 
1.69272 0.38696 0.177798 0.970112 -2.86321 0.637511 1.67271 -1.54995 0.5843 
-0.142448 -6.77104 0.563693 0.211375 -6.73962 0.413459 -0.0900918 -7.28979 0.214182 
0.551709 -5.51832 0.901622 0.605726 -4.3056 0.977804 0.695272 -3.33732 0.777581 
1.71948 -0.906795 0.570341 1.27358 -2.40681 0.712877 -0.158335 -6.97641 0.404327 
1.71348 -0.0483668 0.378939 0.0118083 -6.18732 1.12238 0.0363697 -7.04288 0.294537 
0.400453 -6.18989 0.652955 0.598264 -4.90991 1.0444 0.616349 -3.85413 0.961099 
1.49108 -1.73177 0.77966 -0.137732 -7.07014 0.316743 0.817232 -2.93834 0.780929 
1.68896 -0.498393 0.582201 1.63905 0.394211 0.295276 -0.00305913 -6.21052 1.00155 
0.198922 -6.67202 0.434586 0.533673 -5.55162 0.902577 -0.0704174 -6.99585 0.314599 
0.597713 -4.37153 1.07762 1.54793 -1.13148 0.80833 0.639842 -3.42962 0.929188 
1.02029 -2.48918 0.832017 -0.105214 -6.51987 0.634589 1.62251 -0.0680322 0.5855 
0.432801 -5.88858 1.73312 0.369709 -6.14975 0.640305 0.0388278 -6.81871 0.361437 
0.574641 -4.92451 1.05287 1.54355 -0.627496 0.801458 0.58887 -3.9025 1.05963 
0.693128 -3.0011 0.903164 1.21417 -1.91119 0.907357 -0.0989937 -6.60119 0.519215 
1.56087 0.433217 0.461565 0.0757816 -6.04843 1.15203 0.449606 -5.9119 1.68929 
0.182291 -6.5098 0.465488 0.48758 -5.51727 0.861968 0.566414 -4.37238 1.09874 
-0.0478761 -6.59935 0.466727 0.585989 -3.46865 1.02302 1.31375 -1.26046 0.937998 
0.794573 -2.54198 0.907832 1.48579 -0.286513 0.807432 -0.00164059 -6.09727 0.960562 
1.48643 0.112686 0.718566 0.890213 -5.58634 2.24904 0.329475 -6.03668 0.630983 
0.52294 -4.88633 1.00953 0.0442639 -6.5041 0.465889 0.547416 -3.89375 1.09181 
0.596845 -3.03189 0.983957 0.939331 -1.99589 0.945812 1.30988 -0.750659 0.927964 
-0.0250038 -6.15178 0.806238 1.43682 0.506338 0.63209 0.380081 -5.90976 1.57763 
0.426598 -5.43327 0.818486 0.167976 -6.27614 0.524084 0.512295 -4.329 1.06906 
0.529924 -3.45167 1.06327 0.831203 -5.76213 2.09553 0.00182897 -6.18498 0.694036 
1.30895 -0.25057 0.878741 0.635529 -2.55699 0.956475 1.03656 -1.39146 0.961875 
0.232703 -5.90382 1.35939 1.31259 0.166231 0.809613 1.1197 -5.37247 2.60063 
0.29257 -5.87505 0.645812 0.452242 -4.8145 0.954171 0.0718279 -6.15638 0.631807 
0.489612 -3.84135 1.07903 0.518907 -3.00419 1.02692 0.709991 -2.03303 0.951992 
0.144818 -5.90709 1.15787 1.09158 -0.765479 0.927463 0.702766 -5.86173 1.91048 
1.28574 0.578386 0.719173 0.366742 -5.32291 0.798307 0.174255 -6.0131 0.631075 
0.438768 -4.25911 1.02044 1.11451 -0.238991 0.867538 0.466414 -3.38508 1.06713 
0.121708 -5.91671 0.987325 1.04504 -5.60573 2.35252 0.522089 -2.52434 0.99391 
0.809443 -1.41722 0.938742 0.53987 -5.90378 1.69247 1.12996 0.203967 0.80121 
1.26975 -5.58783 2.91482 0.274931 -5.69995 0.700137 0.377435 -4.73085 0.916994 
0.152601 -5.90243 0.857442 0.414884 -3.76416 1.04483 0.413687 -5.9035 1.48021 
0.446518 -2.92299 1.04797 0.880749 -0.787615 0.881412 0.558265 -1.99088 0.969198 
0.929109 -5.78035 2.1293 1.12102 0.625965 0.718325 0.223054 -5.808 0.792041 
0.324202 -5.21853 0.812965 0.334991 -5.88116 1.2739 0.357018 -4.18476 0.981317 
0.922061 -0.24451 0.806441 0.390714 -3.29381 1.05126 0.796205 -5.91856 1.92111 
0.438055 -2.4271 1.03233 1.17417 -5.70753 2.56276 0.626938 -1.40543 0.925435 
0.948421 0.213346 0.734594 0.316696 -5.83941 1.10738 0.29309 -5.5709 0.799463 
0.668851 -5.99543 1.70508 0.315074 -4.66508 0.910082 1.38295 -5.83008 3.18909 
0.330709 -3.68913 1.01206 0.371202 -2.81065 1.05659 0.691689 -0.804182 0.833759 
1.07222 -5.79904 2.27641 0.454819 -1.90473 1.01865 0.95338 0.641161 0.655134 
0.946626 -5.96013 2.0246 0.589957 -6.00415 1.51474 0.338447 -5.74799 0.991719 
0.312576 -5.16367 0.862939 0.738633 -0.267169 0.731556 0.282947 -4.13445 0.965422 
0.307059 -3.20874 1.03093 0.365328 -2.30448 1.07708 0.494712 -1.36276 0.957066 
1.25425 -5.95357 2.73366 0.771725 0.19464 0.643017 1.13103 -5.94305 2.3007 
0.873126 -6.1069 1.85504 0.54359 -5.96248 1.34476 0.361465 -5.54988 0.938486 
0.278627 -4.65265 0.930681 0.251268 -3.64238 0.994018 0.535513 -0.81036 0.821375 
1.51412 -5.81344 3.46179 0.291344 -2.71197 1.05772 0.383572 -1.80316 1.1032 
0.78853 0.625345 0.558635 1.24438 -6.098 2.61504 1.07169 -6.07533 2.0981 
0.822662 -6.18974 1.70192 0.514758 -5.86332 1.20182 0.572263 -0.299539 0.674894 
0.33994 -5.19656 0.944255 0.230225 -4.13633 0.970362 0.22659 -3.16037 1.01581 
0.409145 -1.30763 1.04549 0.295607 -2.20309 1.1176 1.36927 -6.06756 3.07457 
0.603716 0.153998 0.554076 1.03434 -6.24728 1.95724 1.20671 -6.17165 2.35997 
0.773039 -6.19267 1.54858 0.478303 -5.67032 1.10066 0.275038 -4.71964 0.972072 
0.189557 -3.64692 0.989765 0.422231 -0.805649 0.869571 0.214051 -2.66041 1.05272 
0.328471 -1.72844 1.19571 1.72064 -5.48583 3.76552 0.63003 0.58406 0.453531 
1.29236 -6.2584 2.7354 1.00348 -6.39156 1.83449 1.18106 -6.28161 2.17011 
0.709773 -6.10638 1.39865 0.434964 -0.33268 0.667194 0.404975 -5.33708 1.04989 
0.20628 -4.2099 0.988381 0.161048 -3.16556 1.00597 0.354632 -1.26793 1.16037 
0.228309 -2.15802 1.13732 1.46291 -5.96905 3.25837 0.45211 0.0995737 0.496548 
1.26728 -6.39043 2.46093 1.16036 -6.44456 2.03174 0.958344 -6.45451 1.70612 
0.61906 -5.90901 1.26749 0.304021 -4.87389 1.03127 0.15333 -3.71459 0.992564 
0.350251 -0.799569 0.968831 0.148687 -2.66849 1.04019 0.275841 -1.70989 1.25228 
0.483231 0.524288 0.363008 1.93205 -5.02967 3.97013 1.33468 -6.29489 2.85487 
1.26205 -6.52117 2.25409 1.13642 -6.61555 1.92239 0.337457 -0.361406 0.72413 
0.878053 -6.40176 1.56581 0.49429 -5.57063 1.17168 0.212106 -4.3573 1.01736 
0.117704 -3.22773 0.996605 0.307607 -1.26731 1.24087 0.167008 -2.17721 1.12609 
1.58547 -5.69723 3.44194 0.330159 0.0411992 0.499527 1.3007 -6.5206 2.55741 
1.25435 -6.68705 2.10106 1.09078 -6.7224 1.81552 0.751361 -6.2084 1.42436 
0.357924 -5.10052 1.10955 0.144304 -3.84378 1.00081 0.299703 -0.810136 1.06402 
0.10139 -2.73193 1.01799 0.219062 -1.74799 1.24713 0.357601 0.454732 0.310311 
2.0835 -4.65434 4.03463 1.38536 -6.19562 2.97974 1.30716 -6.7158 2.33788 
1.23232 -6.86913 1.98759 1.0009 -6.70406 1.69425 0.274705 -0.390044 0.817541 
0.588594 -5.85853 1.30233 0.243364 -4.56491 1.06365 0.0986481 -3.34061 0.987318 
0.252718 -1.31407 1.24886 0.115235 -2.24894 1.08495 0.262895 0.384903 0.309779 
0.159269 -1.82742 1.18491 0.0739212 -2.83883 0.988811 0.159984 -4.02288 1.02336 
0.425254 -5.37176 1.20987 1.31804 -6.53875 2.6471 1.31338 -6.92284 2.17238 
0.855388 -6.52176 1.56094 1.18102 -7.00022 1.8904 1.71203 -5.33351 3.58512 
0.248023 -0.858708 1.10178 0.246781 -0.0119491 0.56683 0.075644 -2.35688 1.02485 
0.188647 -1.40218 1.1889 0.10247 -3.49368 0.988645 0.292688 -4.81106 1.13879 
0.673182 -6.16545 1.43547 0.225006 -0.445721 0.891488 1.0817 -7.00428 1.7873 
1.2956 -7.13258 2.0489 1.32091 -6.81687 2.41483 1.44976 -5.97361 3.1026 
2.15325 -4.42084 4.02096 0.195056 0.315158 0.359302 0.101968 -1.93332 1.08763 
0.0660937 -2.97728 0.965699 0.186213 -0.952401 1.06903 0.19605 -4.23674 1.07793 
0.496023 -5.66303 1.33409 0.928271 -6.83355 1.67429 1.2374 -7.28374 1.95096 
1.33653 -7.09269 2.24448 1.33133 -6.45218 2.72864 0.192284 -0.0891332 0.666625 
1.81049 -4.97483 3.65586 0.0510104 -2.48866 0.965472 0.121065 -1.51984 1.08481 
0.127124 -3.67724 1.02265 0.354054 -5.07916 1.2548 0.742515 -6.47751 1.56687 
1.12906 -7.30209 1.86058 0.168428 -0.543525 0.899404 1.32473 -7.35905 2.11558 
1.31245 -6.82107 2.47842 1.52405 -5.64926 3.21285 2.14132 -4.2404 4.00063 
0.146217 0.239308 0.440624 0.0542441 -2.05674 0.983129 0.0780346 -3.14057 0.973839 
0.11729 -1.08369 0.983453 0.249604 -4.47615 1.18588 0.565995 -5.9678 1.48274 
0.973506 -7.14038 1.77212 1.26287 -7.54766 2.01605 1.3262 -7.16964 2.3093 
1.3499 -6.26298 2.80455 0.141416 -0.181642 0.709071 1.86085 -4.68434 3.65682 
0.0447523 -2.63976 0.935519 0.0575298 -1.65301 0.962795 0.172125 -3.88897 1.11803 
0.425964 -5.3696 1.4209 0.796613 -6.79321 1.6996 0.102295 -0.672487 0.838871 
1.14736 -7.58316 1.93449 1.29168 -6.7371 2.52652 1.31797 -7.50366 2.18913 
1.59463 -5.25865 3.29581 0.103144 0.147556 0.50217 2.05949 -3.96388 3.95732 
0.023555 -2.19466 0.904132 0.111413 -3.33187 1.04712 0.0485676 -1.23364 0.870536 
0.321544 -4.74713 1.36545 0.635493 -6.29145 1.65827 0.995216 -7.43217 1.87368 
1.2553 -7.75226 2.09535 1.37675 -5.96852 2.87368 1.28682 -7.14056 2.3639 
0.0806834 -0.304674 0.677984 1.86067 -4.43218 3.62133 0.0608685 -2.81583 0.971836 
0.00640187 -1.79192 0.852234 0.239923 -4.14038 1.30057 0.509987 -5.69478 1.64164 
0.837066 -7.1014 1.84811 0.0325032 -0.82653 0.739464 1.13826 -7.8207 2.02915 
1.27528 -7.54603 2.26039 1.27 -6.50789 2.5798 1.63323 -4.90266 3.32361 
0.0510054 0.0255642 0.502401 0.0165905 -2.35327 0.889371 0.169525 -3.56685 1.21665 
1.93782 -3.56517 3.83053 -0.013099 -1.39141 0.755717 0.414116 -5.06715 1.62342 
0.702997 -6.62252 1.86721 0.996341 -7.68422 2.00351 1.21374 -7.86721 2.19278 
1.2285 -7.01091 2.39734 1.44738 -5.39082 3.01182 0.0122645 -0.458448 0.594811 
1.75418 -4.34911 3.45823 -0.0234565 -1.94054 0.791154 0.103279 -3.03472 1.10908 
0.332196 -4.45036 1.57728 0.601545 -6.04492 1.91185 -0.0342348 -0.996882 0.628213 
0.864037 -7.36987 2.03276 1.10211 -7.98011 2.16112 1.20286 -7.48969 2.31909 
1.26747 -6.10849 2.6415 -0.0127394 -0.131624 0.441155 0.038474 -2.55092 0.97725 
1.5184 -4.83626 3.13148 -0.0592808 -1.55123 0.670064 0.253103 -3.86427 1.48894 
0.518826 -5.42456 1.93966 1.82639 -3.21503 3.65823 0.760975 -6.91417 2.11258 
1.16432 -6.77285 2.40545 0.977906 -7.85572 2.18378 1.14044 -7.87798 2.306 
-0.057024 -0.636336 0.48823 -0.0237559 -2.11606 0.824025 1.70877 -4.00927 3.36311 
0.17219 -3.31526 1.35525 1.28161 -5.58808 2.70567 0.437534 -4.80371 1.91393 
-0.0902319 -1.17315 0.532363 0.682542 -6.35637 2.20527 1.1094 -7.34687 2.35169 
0.873526 -7.54362 2.26558 1.03897 -8.02213 2.33974 -0.0816768 -0.320091 0.3439 
1.49183 -4.58986 3.07699 0.089656 -2.8068 1.18106 -0.0793562 -1.71987 0.657796 
0.349661 -4.20528 1.82045 1.1027 -6.43768 2.38263 0.609421 -5.74148 2.25708 
1.04015 -7.77697 2.42418 0.794828 -7.09178 2.38026 0.936778 -7.88732 2.42202 
1.72045 -2.92047 3.45531 -0.119136 -0.829222 0.387171 1.25665 -5.16947 2.69665 
0.00874488 -2.34161 0.977081 0.255577 -3.63855 1.664 1.64537 -3.64419 3.22767 
1.00127 -7.11123 2.34307 0.52668 -5.1138 2.23212 -0.125002 -1.34936 0.489943 
0.728481 -6.53568 2.47752 0.949599 -7.90351 2.55401 0.855034 -7.55068 2.53542 
-0.146309 -0.532579 0.243926 1.45724 -4.34313 2.97817 -0.0653724 -1.91923 0.759136 
1.03783 -6.00231 2.32694 0.159453 -3.10789 1.45872 0.43095 -4.50148 2.12335 
0.65807 -5.91909 2.51177 0.917417 -7.53756 2.51563 0.788403 -7.07891 2.63985 
0.866199 -7.71462 2.69229 1.61996 -2.68397 3.23558 -0.162794 -1.02756 0.330407 
1.21777 -4.79652 2.66362 0.0661889 -2.61707 1.22163 0.326866 -3.91685 1.94339 
-0.127825 -1.53249 0.544285 0.882941 -6.71592 2.26535 1.57458 -3.29025 3.07439 
0.574173 -5.28776 2.46315 0.724588 -6.51711 2.6963 0.834204 -7.58493 2.74494 
0.797445 -7.3292 2.80148 1.42951 -4.01447 2.8516 -0.193216 -0.762892 0.187361 
0.981359 -5.4059 2.27072 -0.0194784 -2.16856 0.96975 0.220874 -3.36249 1.71146 
0.476176 -4.67335 2.33322 0.654498 -5.90648 2.68242 0.775995 -7.08741 2.48744 
0.73552 -6.83924 2.85955 0.762811 -7.31156 2.91572 1.52111 -2.48953 3.00025 
-0.172153 -1.23593 0.375807 1.18529 -4.49616 2.58911 -0.0948233 -1.75426 0.714122 
0.369609 -4.08819 2.13569 0.117487 -2.83454 1.44327 0.573323 -5.2867 2.59589 
0.78152 -5.98173 2.08419 0.67316 -6.29074 2.8557 0.701596 -6.88118 2.99663 
0.696166 -7.06517 2.78592 1.49649 -2.96253 2.90141 1.39768 -3.64769 2.71612 
-0.200491 -1.0201 0.251517 0.969151 -4.72618 2.28456 0.261284 -3.53012 1.88845 
0.47997 -4.68642 2.44283 0.606398 -5.71267 2.78774 0.0173887 -2.31561 1.1401 
0.645009 -6.39733 3.003 0.632232 -6.38538 2.23497 0.633159 -6.72644 2.97051 
1.42078 -2.32434 2.74722 -0.107086 -1.64953 0.683332 1.24378 -3.96968 2.50137 
0.377415 -4.11406 2.23082 0.53266 -5.12956 2.66088 0.154476 -2.9836 1.60127 
0.588657 -5.89292 2.94987 0.732573 -5.09893 1.94391 0.580653 -6.2804 3.03078 
0.54258 -6.36832 2.53961 1.40746 -2.91027 2.6851 -0.157899 -1.29829 0.463747 
0.0405788 -2.38496 1.24049 0.450178 -4.56473 2.48388 0.999646 -4.31895 2.24411 
0.270078 -3.55508 1.96598 0.529758 -5.37541 2.84332 0.533412 -5.82778 3.01166 
0.487306 -6.03969 2.75128 0.526729 -5.44157 1.83113 1.33232 -2.20112 2.51501 
-0.0467697 -1.90096 0.922628 1.27525 -3.40985 2.41792 0.359206 -4.0282 2.26194 
0.156913 -2.9636 1.63747 0.466578 -4.8536 2.6873 0.487844 -5.3859 2.94165 
0.446218 -5.61616 2.82616 0.756151 -4.47374 1.93889 0.395197 -5.53978 2.02627 
1.33646 -2.65304 2.50964 0.262921 -3.50792 1.99504 0.39777 -4.34346 2.48994 
-0.0770466 -1.65693 0.787544 1.10554 -3.7513 2.16713 0.440419 -4.94401 2.82841 
0.412204 -5.20946 2.82398 0.334022 -5.30202 2.25411 0.0551144 -2.39147 1.29557 
0.496543 -4.63546 1.60675 1.2412 -2.09557 2.26804 1.26145 -2.7581 2.32008 
0.169774 -3.00214 1.70285 0.323963 -3.86622 2.2634 0.389324 -4.49725 2.6715 
0.379862 -4.82858 2.77606 0.303885 -4.94204 2.38387 0.823482 -4.1276 1.879 
0.297764 -4.71088 1.50671 0.248788 -3.42909 2.02045 -0.00507646 -1.97224 1.04951 
0.334036 -4.05433 2.47392 1.12082 -3.27838 2.05485 0.345513 -4.45568 2.69049 
0.283405 -4.58575 2.43125 0.197348 -4.58016 1.65078 0.095956 -2.5591 1.44206 
0.53664 -4.22169 1.55096 1.16498 -2.02543 2.0555 0.177281 -3.01788 1.76961 
1.19098 -2.52189 2.12777 0.275989 -3.63779 2.25138 0.307426 -4.0781 2.56504 
0.162531 -4.28986 1.80422 0.264913 -4.17689 1.23887 0.264284 -4.25494 2.42853 
0.915719 -3.66359 1.7726 0.217882 -3.25922 2.02108 0.05329 -2.23703 1.26007 
0.263792 -3.68969 2.3925 0.573107 -3.98939 1.43647 0.103336 -4.00196 1.16847 
0.148247 -3.97625 1.88847 0.244365 -3.93919 2.39374 0.118377 -2.63904 1.55033 
1.11136 -2.70466 1.93556 1.08569 -1.97609 1.82827 0.163175 -2.91231 1.79127 
0.214984 -3.29943 2.17455 0.910067 -3.34683 1.62352 0.255495 -3.91936 1.0811 
0.0401318 -3.72077 1.2315 0.221853 -3.62292 2.32632 0.139816 -3.68379 1.93023 
0.163678 -2.92096 1.92443 0.082466 -2.35442 1.40078 1.02022 -1.96073 1.63587 
1.03882 -2.58094 1.73179 0.573689 -3.76495 1.25494 0.192765 -3.28442 2.20758 
0.0570359 -3.65541 0.856417 0.0200581 -3.42431 1.30973 0.134232 -3.414 1.95114 
0.119602 -2.60472 1.64732 0.849371 -3.15649 1.41902 0.155354 -2.91729 2.01905 
-0.0430701 -3.32727 0.794607 0.282042 -3.75999 0.925391 0.129176 -3.15559 1.95292 
0.0156034 -3.14403 1.37189 0.112807 -2.54771 1.75072 0.952427 -1.97744 1.43427 
0.954019 -2.52287 1.498 0.0787912 -2.27453 1.46517 0.120501 -2.8849 1.9185 
-0.0795269 -2.99767 0.826649 0.0485876 -3.50711 0.649033 0.620943 -3.41703 1.0821 
0.0171133 -2.88601 1.41619 0.106294 -2.60141 1.83188 -0.0903283 -3.10562 0.504254 
0.334788 -3.56926 0.752765 -0.0919892 -2.68289 0.853452 0.836472 -2.71451 1.23925 
0.0263235 -2.65791 1.46946 0.0823061 -2.31633 1.67033 0.0628497 -2.11448 1.48207 
0.877734 -2.04068 1.21677 0.0365059 -3.39627 0.449472 -0.145691 -2.71113 0.462874 
0.0388338 -2.43434 1.51741 -0.0927046 -2.39238 0.877655 0.669084 -2.9704 0.935156 
0.0448647 -2.189 1.51249 -0.114668 -2.98706 0.26915 0.307861 -3.3839 0.530824 
0.796527 -2.14629 0.997237 -0.169241 -2.33493 0.435878 0.0409778 -1.94279 1.43103 
-0.0740395 -2.16269 0.959975 -0.181553 -2.54614 0.189601 0.0372537 -3.27514 0.221029 
0.55896 -2.89943 0.653184 -0.0370208 -1.96382 1.10004 -0.177197 -1.97869 0.413319 
0.697808 -2.2903 0.758566 -0.00931797 -1.75336 1.17126 -0.1224 -2.91351 0.0393816 
0.300042 -3.10617 0.273249 -0.211696 -2.12079 0.120044 -0.136639 -1.74107 0.600425 
-0.194616 -2.45792 -0.0352144 0.532419 -2.50623 0.410647 0.0518853 -3.08579 -0.0462976 
-0.104541 -1.49217 0.683919 -0.206821 -1.62103 0.197647 -0.227804 -1.76712 -0.00614716 
-0.120214 -2.82587 -0.216197 -0.220644 -2.03269 -0.141834 0.299421 -2.71933 -0.000542234 
-0.19575 -1.31584 0.19981 -0.194443 -2.41413 -0.258728 0.0235297 -2.78832 -0.384341 
-0.230854 -1.39123 -0.0991933 -0.162699 -2.54309 -0.518952 -0.222324 -1.66641 -0.242637 
-0.210763 -2.06803 -0.386386 
