# vtk DataFile Version 3.0
vtk output
ASCII
DATASET POLYDATA
POINTS 724 float
10.705 -11.2572 11.7844 11.0414 -12.0614 11.7699 10.4129 -10.4932 11.9044 
11.39 -12.8305 11.7949 10.2099 -9.88577 12.1366 10.5892 -10.8993 12.0927 
11.733 -13.5011 11.8083 10.0658 -9.35187 12.4908 10.8608 -11.5591 12.093 
10.3925 -10.3531 12.2953 11.1574 -12.233 12.1361 11.4758 -12.9048 12.1475 
12.0196 -14.0009 11.8182 10.2379 -9.85592 12.5612 9.9858 -8.872 12.9498 
10.6403 -10.9817 12.3974 11.7547 -13.4138 12.23 10.9271 -11.6757 12.4375 
10.132 -9.39071 12.9398 10.4373 -10.4 12.6528 12.2701 -14.3956 11.8526 
9.98127 -8.42074 13.4882 11.2835 -12.4709 12.4964 12.0554 -13.9021 12.2542 
10.0724 -8.90595 13.396 10.2956 -9.87581 13.0058 10.6647 -10.9933 12.7342 
11.6453 -13.1792 12.6133 12.4923 -14.7125 11.9315 10.9307 -11.651 12.7822 
10.0363 -8.07889 13.9748 10.2038 -9.33129 13.4716 10.4839 -10.4071 13.0678 
12.3284 -14.2909 12.2978 10.1276 -8.6623 13.9054 11.2348 -12.3384 12.8823 
12.0187 -13.7925 12.6802 10.6914 -10.9686 13.1298 10.3675 -9.84191 13.5119 
10.1368 -7.75938 14.5262 12.7 -14.9756 12.0713 12.5789 -14.6172 12.3583 
11.5884 -13.0446 13.0204 10.1661 -8.23745 14.3758 10.923 -11.5567 13.1958 
10.2813 -9.1876 13.9965 10.5516 -10.3805 13.5625 12.381 -14.2874 12.7202 
11.2004 -12.1919 13.3165 10.2683 -8.63741 14.4558 10.4622 -9.75282 14.0726 
10.7464 -10.9221 13.6233 12.0008 -13.7289 13.1096 12.8694 -15.16 12.2491 
10.2536 -7.85255 14.9111 10.2673 -7.42385 15.1616 12.7351 -14.7413 12.6306 
10.9598 -11.4717 13.7022 11.55 -12.8994 13.4688 10.4165 -9.1085 14.5682 
10.6566 -10.3261 14.1494 12.4412 -14.3177 13.1017 10.3172 -8.14158 14.9716 
12.9491 -14.986 12.7347 11.2161 -12.0599 13.827 10.8527 -10.8743 14.2263 
10.6023 -9.6632 14.6909 11.9999 -13.6589 13.5682 10.4119 -8.48904 15.0442 
10.3772 -7.55841 15.5003 10.3993 -7.0544 15.8055 13.0517 -15.3194 12.5197 
12.74 -14.6459 13.1521 11.0568 -11.3982 14.3144 11.5485 -12.7394 13.9736 
10.8053 -10.2516 14.8124 10.5564 -8.9321 15.1564 10.4373 -7.85806 15.5483 
12.4236 -14.2121 13.6614 12.982 -14.8785 13.2645 10.5407 -6.61024 16.4766 
10.5001 -7.23392 16.0885 13.1528 -15.1343 13.0819 11.2905 -11.9348 14.4253 
11.0046 -10.8041 14.9154 10.7491 -9.48394 15.3164 10.5301 -8.22348 15.5954 
11.9607 -13.4418 14.133 13.2304 -15.4292 12.8829 12.7856 -14.5848 13.7726 
10.5536 -7.58727 16.0902 11.1998 -11.3029 15.0054 10.6797 -8.66979 15.704 
10.9618 -10.0919 15.4866 11.5784 -12.5158 14.5693 12.4236 -14.0584 14.2866 
10.6324 -6.65197 16.7733 13.1144 -14.902 13.7636 10.7557 -5.93958 17.3886 
10.649 -7.9635 16.1207 13.3158 -15.1673 13.5882 10.8831 -9.2237 15.8929 
11.1639 -10.6531 15.6204 11.4075 -11.7756 15.1033 10.638 -6.98255 16.683 
11.9566 -13.1751 14.7388 13.3923 -15.484 13.3139 12.8823 -14.5473 14.3555 
10.8037 -8.40089 16.2267 10.6782 -7.32318 16.6357 11.1026 -9.83704 16.1131 
11.3509 -11.1313 15.7182 11.6541 -12.2786 15.214 12.4535 -13.8824 14.8914 
13.2284 -14.8733 14.3367 10.8074 -6.13636 17.5217 11.0016 -5.1502 18.3949 
10.7725 -7.68988 16.6465 13.4498 -15.1332 14.1948 11.009 -8.92406 16.432 
11.3032 -10.399 16.2845 11.5368 -11.5641 15.7958 10.773 -6.58626 17.3017 
13.5367 -15.4948 13.7952 11.9847 -12.8874 15.3375 12.9291 -14.4091 14.9885 
11.0583 -5.21165 18.5925 10.9259 -8.09334 16.7524 10.7977 -6.97928 17.1883 
11.2253 -9.50838 16.6828 11.482 -10.8675 16.3935 11.7462 -12.0144 15.8615 
13.2774 -14.7382 15.0084 12.4235 -13.5573 15.4962 10.9674 -5.72803 18.2057 
13.5993 -15.206 14.5546 11.3253 -4.13216 19.7345 10.8897 -7.32953 17.1947 
11.1245 -8.57429 16.9547 11.4187 -10.0562 16.8845 11.6516 -11.2812 16.4577 
12.8729 -14.0976 15.646 10.9102 -6.21268 17.9037 12.012 -12.5274 15.9475 
13.4923 -14.9052 15.1245 13.6889 -15.4643 14.4323 11.3024 -4.45566 19.6335 
11.0378 -7.714 17.2885 11.3313 -9.1178 17.2099 10.9322 -6.55732 17.8034 
11.5892 -10.5185 17.0087 13.2022 -14.4094 15.7808 11.8319 -11.6857 16.5056 
12.3621 -13.1051 16.0912 11.1187 -5.25037 18.8965 13.6891 -15.0817 15.2661 
11.7153 -3.24042 21.0576 11.2279 -8.16652 17.4743 11.0125 -6.89879 17.7852 
11.5157 -9.64378 17.4261 13.4615 -14.641 15.8621 11.7481 -10.9181 17.081 
12.0482 -12.1211 16.5707 12.7525 -13.6227 16.2876 11.072 -5.66812 18.6463 
13.8063 -15.3982 15.0706 11.4013 -4.2944 20.0608 11.7414 -3.41409 21.1592 
11.1495 -7.27684 17.8511 11.4242 -8.67804 17.7149 11.679 -10.0977 17.5685 
11.081 -6.03266 18.4985 11.9119 -11.2947 17.1339 13.1135 -14.0242 16.4511 
12.3242 -12.6045 16.6936 13.6254 -14.7541 16.0309 11.3087 -4.68964 19.7438 
13.7891 -15.0238 15.8537 12.1227 -2.13499 22.4172 11.328 -7.71646 18.0087 
11.5998 -9.18255 17.9306 11.1456 -6.3974 18.4291 11.8335 -10.4902 17.6605 
12.1004 -11.6831 17.2006 12.6672 -13.1251 16.8739 13.3719 -14.2585 16.6071 
11.2559 -5.07417 19.4735 13.8942 -15.2852 15.7626 11.6955 -3.67126 21.0927 
11.5136 -8.21054 18.2245 11.2676 -6.79196 18.4498 11.7582 -9.6286 18.0864 
11.9921 -10.8552 17.7345 12.0866 -2.56266 22.3284 11.2502 -5.46034 19.2631 
13.6214 -14.5398 16.6179 12.3368 -12.1256 17.3043 13.0067 -13.5539 17.0716 
11.5717 -4.08404 20.7223 13.8072 -14.8292 16.503 12.3972 -1.05839 23.5042 
11.4348 -7.24215 18.5688 11.6807 -8.70065 18.428 11.2971 -5.85926 19.1274 
11.912 -10.0209 18.1999 12.1721 -11.2327 17.8149 12.6291 -12.6147 17.4679 
11.4874 -4.48923 20.3713 13.3311 -13.9534 17.1689 11.9876 -3.03498 22.073 
13.9347 -15.1409 16.3777 11.6113 -7.7384 18.756 11.403 -6.29115 19.086 
11.8338 -9.14197 18.5859 13.5957 -14.2978 17.1575 12.0739 -10.3917 18.2983 
11.4548 -4.90145 20.078 12.3387 -1.67493 23.298 12.3905 -11.6555 17.9266 
12.9725 -13.155 17.6221 11.8567 -3.55047 21.6522 13.799 -14.6284 17.0525 
12.6544 -0.265161 24.405 11.5581 -6.7688 19.1573 11.771 -8.22822 18.9415 
11.4771 -5.3431 19.8563 11.987 -9.54023 18.7113 11.7577 -4.0167 21.2402 
12.2577 -10.7756 18.4058 13.2994 -13.6418 17.6891 12.6657 -12.1806 18.0613 
12.2295 -2.3313 22.9416 13.9428 -14.9764 16.9214 11.5637 -5.8112 19.7496 
11.7267 -7.28598 19.3116 11.6994 -4.47744 20.8603 11.9176 -8.67222 19.0906 
13.57 -14.0521 17.6526 12.154 -9.92423 18.8297 12.1079 -3.00552 22.4789 
12.4807 -11.2277 18.5325 12.5619 -0.954196 24.1075 12.9842 -12.7749 18.1769 
13.7795 -14.4224 17.5451 11.7011 -4.93022 20.5869 11.7037 -6.32311 19.7672 
12.0062 -3.64856 21.9743 11.8804 -7.79169 19.4768 12.9141 0.388558 25.1721 
12.0677 -9.07878 19.2147 12.3497 -10.3384 18.9608 13.293 -13.3314 18.2029 
12.4345 -1.70906 23.6625 12.7502 -11.785 18.6699 13.9325 -14.7996 17.4114 
12.2881 -2.62551 23.0511 11.9618 -4.16022 21.5905 11.764 -5.4105 20.4281 
11.8633 -6.87219 19.8826 13.5535 -13.799 18.1355 12.0213 -8.2471 19.6119 
12.2369 -9.48305 19.3378 12.5882 -10.8283 19.1207 13.0451 -12.418 18.7593 
12.7806 -0.437595 24.7726 13.7591 -14.2071 18.0153 12.5558 -1.5428 24.0106 
12.2293 -3.30752 22.6229 11.9611 -4.62942 21.3015 11.8804 -5.94222 20.392 
12.013 -7.40456 20.0262 12.1657 -8.66612 19.7238 13.3216 -13.0211 18.7415 
13.1494 1.07499 25.8033 12.4424 -9.92697 19.4865 12.8674 -11.4255 19.2877 
13.9151 -14.6127 17.8697 12.8215 -0.627534 24.8368 12.4738 -2.28095 23.5859 
12.2159 -3.87757 22.2759 12.0038 -5.11416 21.1087 13.5569 -13.535 18.6356 
12.0241 -6.51471 20.4633 12.1501 -7.87927 20.1463 12.3318 -9.08564 19.8392 
13.149 -12.0872 19.3744 12.6993 -10.4575 19.6835 13.0782 0.4443 25.6004 
13.7478 -13.9785 18.4919 12.4432 -2.9593 23.2288 12.7411 -1.28722 24.4798 
12.2279 -4.39143 21.9916 12.0908 -5.64789 21.0263 12.1675 -7.07011 20.5809 
12.2885 -8.3108 20.2438 13.3915 -12.7142 19.3224 12.5399 -9.55137 19.9917 
12.9971 -11.0991 19.8974 13.3977 1.9331 26.4079 13.899 -14.4161 18.3176 
13.0172 -0.226266 25.3372 12.4496 -3.58859 22.9161 12.6835 -1.95105 24.1241 
12.2627 -4.89643 21.781 13.5916 -13.2588 19.1764 12.2102 -6.22279 21.0529 
12.3023 -7.5627 20.687 12.4476 -8.74025 20.3445 13.2772 -11.7834 20.0058 
12.8085 -10.1158 20.2137 13.2726 1.02924 26.0933 13.7563 -13.7315 19.0032 
12.9527 -0.928414 24.9963 12.6591 -2.62812 23.7955 12.4778 -4.16636 22.6469 
12.3256 -5.42904 21.6662 12.3425 -6.78333 21.1411 12.4366 -8.00579 20.7723 
13.4954 -12.4155 19.9418 12.6501 -9.21763 20.4873 13.1217 -10.7965 20.4709 
13.8919 -14.2088 18.7725 13.6249 2.79118 26.9154 13.1921 0.206455 25.7732 
12.9047 -1.61839 24.6525 12.67 -3.30169 23.5044 13.6616 -12.9714 19.7685 
12.5174 -4.71075 22.4364 12.4194 -5.98972 21.6556 12.4746 -7.28396 21.2332 
12.5878 -8.44117 20.8583 13.4052 -11.498 20.6169 12.917 -9.79998 20.7103 
13.4561 1.67132 26.5413 13.7945 -13.4609 19.5715 13.1425 -0.562945 25.4482 
12.8804 -2.32023 24.3288 12.7069 -3.9389 23.2565 12.5703 -5.25091 22.3079 
12.5368 -6.53582 21.7157 12.6067 -7.73391 21.3092 13.6113 -12.1243 20.5703 
12.7783 -8.92101 20.9812 13.2319 -10.5016 20.9873 13.9002 -13.9914 19.2426 
13.8233 3.59135 27.3411 13.3468 0.695658 26.1653 13.1131 -1.29938 25.1289 
12.8864 -3.03094 24.0456 12.756 -4.52855 23.0625 13.755 -12.6747 20.3976 
12.6464 -5.79394 22.2758 12.6648 -7.02973 21.7934 12.7506 -8.17196 21.3818 
13.5143 -11.2117 21.1691 13.0286 -9.50163 21.1815 13.9256 -13.7661 19.7214 
13.3271 -10.1993 21.4464 12.9249 -8.64665 21.4814 12.7951 -7.47802 21.8617 
12.7504 -6.31523 22.3162 13.301 -0.16637 25.8388 13.0983 -2.03853 24.8214 
12.8117 -5.08307 22.9426 12.9227 -3.71618 23.8155 13.636 2.3427 26.973 
13.7145 -11.8271 21.165 13.8621 -13.1644 20.2013 13.1479 -9.2097 21.6435 
13.5993 -10.9068 21.6478 12.9323 -7.91345 21.9232 12.8722 -6.79116 22.3827 
12.8833 -5.61268 22.9107 13.8471 -12.355 21.0336 12.9776 -4.34468 23.6473 
13.1028 -2.78545 24.5474 13.2923 -0.964364 25.5469 13.4922 1.23366 26.5392 
13.9952 4.32224 27.7455 13.9668 -13.512 20.2408 13.4138 -9.88121 21.8689 
13.0891 -8.37793 21.9992 13.7944 -11.5119 21.6954 12.9998 -7.22875 22.4446 
12.9806 -6.1099 22.9483 13.0424 -4.91295 23.5549 13.1326 -3.50821 24.3317 
13.2987 -1.75247 25.2714 13.4336 0.266044 26.1866 13.939 -12.8096 20.8846 
13.8116 3.03395 27.3974 13.2794 -8.91539 22.1179 13.6647 -10.5733 22.0673 
13.1306 -7.65516 22.4973 13.0979 -6.56477 23.0144 13.1208 -5.43453 23.5463 
[...]
POINT_DATA 724
VECTORS velocity double
0.0844931 -0.0162459 -0.383749 0.118894 -0.0448581 -0.368571 -0.0277465 0.0841262 -0.339607 
0.0465573 0.0151992 -0.270686 -0.11876 0.153112 -0.312078 0.00704987 -0.00645462 -0.350302 
-0.0276345 0.039294 -0.184268 -0.168362 0.168567 -0.318678 0.0699739 -0.0914152 -0.364381 
-0.0778472 0.0677515 -0.311188 0.0576925 -0.094069 -0.320446 -0.0210516 -0.0208636 -0.231267 
-0.0299229 -0.0264815 -0.176215 -0.136876 0.115033 -0.289992 -0.176977 0.13597 -0.354722 
-0.00607512 -0.0651341 -0.311475 -0.0916689 0.00691559 -0.163558 0.0450501 -0.157303 -0.304043 
-0.158313 0.113252 -0.29349 -0.0832086 0.0111203 -0.259917 0.0139943 -0.134 -0.220991 
-0.164949 0.08466 -0.402815 0.00174103 -0.123869 -0.22844 -0.102231 -0.0361053 -0.157212 
-0.148797 0.0748447 -0.331432 -0.125204 0.0490795 -0.227159 -0.0148345 -0.122357 -0.238175 
-0.103762 -0.0281048 -0.116445 0.0732099 -0.240766 -0.287803 0.0336026 -0.217175 -0.217558 
-0.158126 0.058368 -0.428567 -0.123513 0.0346828 -0.240312 -0.0731026 -0.0570984 -0.167548 
-0.0575033 -0.133279 -0.202122 -0.116356 0.0137291 -0.336315 0.00702354 -0.199062 -0.141556 
-0.147858 -0.0144308 -0.0835975 -0.00887279 -0.186126 -0.12663 -0.0908797 -0.030627 -0.132649 
-0.160797 0.065365 -0.423934 0.132362 -0.328628 -0.356444 0.0160425 -0.239389 -0.269558 
-0.0910462 -0.0720412 -0.0237557 -0.109626 -0.00372359 -0.372956 0.0409611 -0.283655 -0.0915078 
-0.0785262 -0.0391352 -0.19886 -0.0419312 -0.134622 -0.0411585 -0.0921382 -0.112985 -0.141574 
0.0387716 -0.283514 -0.0178544 -0.0651363 -0.0603048 -0.280242 -0.0437913 -0.104587 -0.0453579 
0.0190901 -0.257899 0.0189908 -0.158213 0.0118398 0.0250404 0.176728 -0.379809 -0.401869 
-0.118049 0.0194639 -0.370625 -0.176816 0.125438 -0.387994 0.03904 -0.270235 -0.272083 
0.0736879 -0.356007 0.0626819 -0.0423105 -0.1356 0.0937469 -0.028548 -0.109805 -0.147029 
0.00221144 -0.201101 0.0756948 -0.0965586 -0.0787771 -0.0601532 -0.0710407 -0.0471019 -0.318148 
0.117801 -0.333988 -0.321647 0.092783 -0.368043 0.120936 0.0622219 -0.316675 0.143291 
-0.00280931 -0.152727 -0.000363659 -0.135269 0.0339221 0.149679 -0.0281913 -0.107281 -0.242657 
-0.127521 0.0717019 -0.33315 -0.205683 0.237897 -0.346948 0.217141 -0.404425 -0.420764 
-0.00209701 -0.178673 -0.135174 0.121101 -0.410968 0.176579 0.0357529 -0.220951 0.200709 
0.0293776 -0.215382 0.103238 0.00193861 -0.147735 -0.139768 -0.0718645 -0.0196023 -0.289241 
-0.100814 0.0161324 0.105545 0.0832325 -0.240844 -0.17524 -0.228197 0.355431 -0.307164 
-0.149984 0.165031 -0.300773 0.169482 -0.330752 -0.287489 0.154079 -0.433672 0.201157 
0.0825339 -0.309311 0.143353 0.00778664 -0.151143 -0.0377646 -0.0214885 -0.103399 -0.230843 
-0.0622758 0.0021509 0.258205 0.249687 -0.390047 -0.38629 -0.000437812 -0.0729846 0.0389471 
-0.0862782 0.0429443 -0.263914 0.142081 -0.399895 0.147245 0.00843445 -0.151751 -0.159196 
0.00959192 -0.151094 0.0107824 0.129386 -0.331315 0.230662 -0.070208 0.0723943 0.230774 
-0.191641 0.316635 -0.273894 0.114215 -0.182293 -0.0546454 -0.199775 0.372663 -0.211455 
-0.0323662 -0.0624144 -0.21965 0.199979 -0.272037 -0.165637 -0.00326205 -0.126971 -0.105763 
0.0432015 -0.205198 0.00731995 0.183705 -0.443506 0.139074 -0.149902 0.223528 -0.264022 
0.0364368 -0.106335 0.254413 0.277142 -0.344109 -0.294316 0.033336 -0.0253133 0.141373 
-0.00258215 -0.124834 -0.174157 -0.100756 0.11456 -0.242403 -0.0377667 -0.0582839 -0.108756 
0.0966845 -0.289852 -0.0109945 0.183049 -0.401304 0.13259 -0.0257262 0.0486963 0.230245 
0.147 -0.137269 0.0585117 -0.163575 0.323618 -0.194927 -0.151392 0.317174 -0.0694117 
-0.0534432 0.0068969 -0.212591 0.229773 -0.21534 -0.0221445 -0.0219153 -0.0962905 -0.155858 
-0.0365234 -0.0519563 -0.13719 0.144002 -0.359315 -0.0258357 -0.144161 0.272457 -0.219023 
0.305838 -0.292576 -0.170396 0.11132 -0.232891 0.135271 0.0512087 -0.020833 0.164349 
-0.123441 0.297095 -0.0462886 -0.0266341 -0.0639916 -0.185868 -0.110957 0.186635 -0.218209 
-0.077612 0.0088219 -0.180514 0.000628504 -0.112063 -0.153883 0.165899 -0.380096 -0.0302462 
0.157071 -0.129378 0.111851 0.0175228 -0.0442261 0.126525 -0.114994 0.272781 -0.0992861 
0.282656 -0.232092 0.0152627 -0.138863 0.448842 0.0688563 -0.0758478 0.0957343 -0.203308 
-0.04263 -0.0539755 -0.182121 -0.105994 0.0718285 -0.205323 0.0473213 -0.19052 -0.155251 
0.0335256 -0.042429 0.0999251 -0.109793 0.25415 -0.14673 0.136374 -0.309819 -0.0249537 
0.227266 -0.199688 0.08337 0.345597 -0.268201 -0.0362225 -0.11179 0.404953 0.0520792 
-0.0525402 0.0214305 -0.189028 -0.0971346 0.0414845 -0.203272 -0.0943236 0.212839 -0.161861 
-0.0919046 0.0555167 -0.204894 0.106739 -0.128372 0.0770441 0.0837003 -0.250272 -0.14623 
0.0556903 -0.158787 -0.0127184 -0.0878841 0.278632 -0.0148152 0.2981 -0.266391 0.0614139 
-0.0964173 0.475745 0.233791 -0.0607135 0.00458591 -0.189659 -0.074579 0.154098 -0.1651 
-0.138199 0.127075 -0.211311 0.183184 -0.211984 0.0660974 -0.0580753 0.000382921 -0.188313 
0.0907414 -0.257061 -0.127852 0.0105708 -0.0728171 0.00465733 -0.0709398 0.234769 -0.0450583 
0.378719 -0.305161 0.0305737 -0.0932466 0.437484 0.0826452 -0.071089 0.462833 0.21005 
-0.0595458 0.0932773 -0.165482 -0.101977 0.0617638 -0.202834 -0.142813 0.148791 -0.191733 
-0.0568911 0.200332 -0.0680973 -0.0224454 -0.0587564 -0.163355 0.0434 -0.100852 0.0327626 
0.0532991 -0.184399 -0.0948934 0.228252 -0.266279 0.0598874 -0.0756353 0.372145 0.0537053 
0.310377 -0.322304 0.0573369 -0.00185613 0.328229 0.373866 -0.0651629 0.063291 -0.174679 
-0.140144 0.131413 -0.198322 -0.0438899 0.161224 -0.0856388 -0.124813 0.128224 -0.157381 
0.00123572 -0.0941522 -0.129684 -0.00114337 -0.0751496 -0.0348882 0.0957682 -0.156926 0.059047 
-0.0546146 0.299872 0.0343924 0.386362 -0.368336 0.0508605 -0.0581537 0.457672 0.171382 
-0.0963714 0.085053 -0.19124 -0.0357563 0.118646 -0.101777 -0.152033 0.162476 -0.166148 
-0.0983251 0.0931262 -0.116469 0.016404 0.358291 0.317813 -0.0322447 0.232052 0.0187705 
0.174564 -0.23674 0.0775346 0.000606717 -0.0790583 -0.080387 -0.00826588 -0.0329552 0.0430257 
-0.0583586 0.449866 0.118382 0.261741 -0.31508 0.0778806 -0.102406 0.262971 0.101756 
-0.0443041 0.092089 -0.126802 -0.128569 0.123534 -0.189491 -0.012104 0.172707 0.00263624 
-0.143152 0.160035 -0.118996 -0.0722553 0.0637049 -0.0697257 -0.0248049 -0.00561904 -0.00430349 
-0.0482777 0.405587 0.0846752 0.041435 -0.0766641 0.111292 0.0141504 0.377745 0.25927 
0.355175 -0.385642 0.0737123 -0.0752543 0.0993751 -0.161326 -0.000161886 0.123095 -0.0193063 
-0.141412 0.140203 -0.158334 0.116834 -0.160692 0.14268 -0.122944 0.142266 -0.066391 
-0.0284651 0.331472 0.0662194 -0.0049979 0.298364 0.193315 -0.0559394 0.0633365 -0.01461 
-0.033415 0.0498811 0.0989425 -0.00562383 0.40006 0.187316 0.203712 -0.254843 0.14179 
-0.268161 0.40253 -0.312669 -0.00785599 0.0941578 -0.0568316 -0.10908 0.117736 -0.180287 
-0.00308959 0.242934 0.0543351 -0.135671 0.133276 -0.108386 -0.018151 0.405601 0.127667 
-0.0982206 0.126065 -0.0133088 0.00707495 0.0153486 0.18918 -0.0533068 0.104022 0.0544101 
0.054143 0.323113 0.251113 0.301842 -0.347326 0.129616 0.0176541 0.162258 0.037715 
-0.0419398 0.0961105 -0.112995 -0.0164843 0.37512 0.0887096 -0.12605 0.118402 -0.167064 
0.0753386 -0.0732821 0.232262 -0.117262 0.114127 -0.051243 0.0585164 0.329107 0.234728 
-0.0755962 0.131903 0.0346211 -0.140223 0.344178 -0.117364 -0.0459693 0.13881 0.148814 
0.154556 -0.1749 0.233658 -0.00174801 0.307393 0.0680183 0.0173971 0.108434 -0.000273875 
0.0342475 0.33164 0.165146 -0.0837804 0.107694 -0.161011 -0.275031 0.527219 -0.389477 
-0.124413 0.0991058 -0.128432 -0.0913403 0.0984087 0.00249574 -0.00679211 0.095751 0.25003 
0.00326646 0.317723 0.0897711 -0.0612701 0.173294 0.0763903 0.246537 -0.278831 0.214321 
0.0860078 0.299829 0.209603 0.0175474 0.323547 0.105478 0.0154931 0.221741 0.0505736 
-0.015504 0.0933602 -0.0674455 0.0532791 0.00223095 0.312586 -0.110348 0.102008 -0.176092 
-0.108029 0.0688967 -0.0762209 -0.0652494 0.111414 0.035276 -0.0434139 0.199696 0.144181 
-0.210563 0.426401 -0.281341 0.12155 -0.101056 0.327741 -0.0220878 0.331173 0.00073768 
0.0866274 0.261679 0.187487 0.0117662 0.291863 0.0655899 0.0173973 0.146915 0.0163063 
-0.0639671 0.0962486 -0.13699 -0.117047 0.0764444 -0.159851 -0.00367606 0.147129 0.253834 
-0.194334 0.558266 -0.240474 -0.0807783 0.0437712 -0.0257295 -0.0470603 0.168924 0.0388149 
0.20171 -0.20744 0.310018 -0.163246 0.408636 -0.215929 0.0816514 0.293183 0.136148 
0.0671869 0.227645 0.13 0.0110065 0.235889 0.0356727 0.0493602 0.0497742 0.349315 
-0.0123966 0.107967 -0.0478549 -0.100332 0.0875072 -0.177064 -0.106281 0.0393443 -0.122708 
-0.0268507 0.205748 0.0715384 -0.0502913 0.0560701 -0.00469672 -0.18308 0.503607 -0.241577 
0.106547 -0.0513699 0.396012 0.118952 0.226395 0.178669 -0.0554564 0.351482 -0.072626 
0.0433949 0.203186 0.0733104 0.00174985 0.172669 -0.000427382 -0.0620838 0.0943968 -0.121291 
-0.116217 0.0618969 -0.18408 0.0108848 0.155661 0.182793 -0.0804017 0.00773749 -0.0797943 
-0.0275332 0.125744 -0.0265336 -0.104258 0.487107 -0.0101331 0.17277 -0.153212 0.395647 
-0.144741 0.431501 -0.174734 0.114182 0.146157 0.160176 0.0535876 0.301191 0.060042 
0.019017 0.177816 0.0257877 0.0585474 0.0595054 0.3156 -0.0303898 0.127591 -0.0553587 
-0.103265 0.0784489 -0.172062 -0.112732 0.0266366 -0.166022 -0.00656941 0.169505 -0.0177995 
-0.0452035 0.0202945 -0.0595677 -0.116866 0.492018 -0.116719 0.10724 -0.0374434 0.409899 
-0.0716661 0.366538 -0.0688817 0.122662 0.223362 0.147504 0.0853986 0.0915053 0.110779 
-0.0105588 0.148418 -0.0183164 -0.0783495 0.101967 -0.117547 -0.12469 0.0528859 -0.193299 
0.0267391 0.124936 0.0764384 -0.0903147 -0.00113008 -0.133931 -0.0136362 0.0967169 -0.0723528 
0.160091 -0.128777 0.449665 -0.0455083 0.39689 0.169561 -0.0996511 0.432884 -0.0912813 
0.0269135 0.310646 0.0472219 0.141326 0.108978 0.181358 0.0700393 0.0343235 0.218734 
0.0438091 0.0704575 0.0538869 -0.0520517 0.123155 -0.0664521 -0.11888 0.0782017 -0.163899 
-0.126143 0.0236932 -0.190288 0.0102888 0.132496 -0.0516503 -0.0505325 0.018784 -0.107148 
-0.062526 0.431486 0.00486807 0.114982 -0.05998 0.351978 -0.0493661 0.362816 0.00511689 
0.110038 0.235281 0.14169 0.121118 0.00709141 0.16783 -0.00498884 0.0693148 0.000153578 
-0.099315 0.103241 -0.114119 -0.140877 0.0514469 -0.187926 0.0365584 0.0818664 0.0211876 
-0.106305 0.00680059 -0.169049 -0.00596881 0.0992792 -0.086264 0.159178 -0.137332 0.454681 
-0.0397368 0.419595 0.154731 -0.0584277 0.420529 -0.0241673 0.0289644 0.30528 0.116193 
0.1464 0.113263 0.201081 0.076159 -0.0402639 0.123697 0.07216 -0.00545731 0.127221 
-0.0576092 0.0747679 -0.0483258 -0.136424 0.0814101 -0.150275 -0.1432 0.0277847 -0.192692 
0.0246192 0.121035 -0.0235445 -0.0623087 0.0371913 -0.1374 0.160254 -0.167583 0.410084 
-0.00428137 0.117906 -0.0863443 -0.12352 0.0212981 -0.180595 -0.155634 0.0580053 -0.171989 
-0.105756 0.0776682 -0.0900331 -0.0159906 0.351506 0.0748474 0.104905 0.242433 0.199758 
0.0191052 -0.0378033 0.0687767 0.137404 -0.0223318 0.221227 -0.018843 0.35088 0.111917 
0.0436069 0.0558418 0.0540396 0.114375 -0.10054 0.251012 -0.0765807 0.0576728 -0.151281 
0.0364608 0.131212 0.016702 -0.156064 0.0400118 -0.18099 -0.139195 0.0738151 -0.123202 
-0.0385654 -0.011491 0.0157219 0.0654702 -0.0333846 0.119047 0.0986724 -0.106578 0.202137 
0.141778 0.138663 0.245968 0.0523941 0.287553 0.209787 -0.0263759 0.383204 0.0268192 
-0.0949566 0.517492 -0.0890919 0.152233 -0.201847 0.333309 -0.00926139 0.132567 -0.089666 
-0.135424 0.0393544 -0.177532 0.0530267 0.0557296 0.12434 -0.154627 0.0658569 -0.148344 
-0.0856974 0.0181072 -0.0320883 0.0457293 -0.122705 0.156828 0.134197 0.00163421 0.26491 
0.11799 0.236586 0.30485 0.0102454 0.338271 0.108409 0.0951583 -0.125184 0.189314 
0.00219601 0.337355 0.14006 -0.0884758 0.0728938 -0.157195 0.0427663 0.146053 0.0309762 
-0.152778 0.0597792 -0.165949 -0.11495 0.0427992 -0.0757476 -0.00712929 -0.0948736 0.100261 
0.100075 -0.103042 0.254124 0.06282 -0.0381947 0.191485 0.142647 0.167359 0.327014 
0.0790545 0.266488 0.274045 0.00271727 0.316022 0.07804 -0.192714 0.597886 -0.450498 
0.127625 -0.221918 0.267096 -0.0192899 0.133988 -0.102371 -0.132581 0.063839 -0.17428 
0.0632003 0.0716826 0.168239 -0.126373 0.0624381 -0.11602 -0.0475255 -0.0492925 0.0394996 
0.0552754 -0.138956 0.212104 0.121974 0.062297 0.307499 0.143349 0.218386 0.407513 
0.025641 0.316404 0.110276 0.0768142 -0.129161 0.233544 -0.0210853 0.431605 0.0116343 
-0.0903924 0.087669 -0.166664 0.041125 0.150257 0.0126057 -0.122841 0.0786877 -0.151076 
-0.0695095 -0.000331171 -0.0228147 0.0126631 -0.119071 0.146919 0.0683504 -0.0257296 0.26649 
0.0821156 -0.0345484 0.269703 0.096445 0.2473 0.289567 0.157322 0.185302 0.428593 
0.0268329 0.266669 0.114045 0.0963886 -0.219257 0.275366 -0.255949 0.571877 -0.674938 
-0.0282038 0.12648 -0.125755 -0.105396 0.0937052 -0.176498 0.0695519 0.0868964 0.163004 
-0.0749523 0.0456413 -0.0823764 -0.0167481 -0.0696038 0.0674012 0.0407363 -0.0741253 0.207455 
0.114206 0.133383 0.35622 0.0363304 0.271915 0.101578 0.166847 0.194376 0.463996 
0.0714969 -0.117406 0.322449 -0.106649 0.556716 -0.282456 -0.0727731 0.109639 -0.183601 
0.0329166 0.137972 -0.0285267 -0.0685246 0.084794 -0.133577 -0.0280798 -0.011648 -0.0138681 
0.00666827 -0.0569356 0.1179 0.0762895 -0.00751448 0.292754 0.0557771 0.073231 0.259998 
0.182452 0.183512 0.51381 0.0935248 0.232345 0.239393 0.025872 0.323019 0.0674063 
0.0772121 -0.201411 0.35434 -0.0258501 0.123018 -0.156863 -0.0536133 0.113906 -0.170974 
-0.200456 0.459435 -0.559515 0.0689981 0.0891144 0.115955 -0.0240876 0.0408051 -0.0806367 
-0.0121035 -0.00920911 0.0122503 0.00921683 0.0496239 0.152821 0.119767 0.188322 0.405915 
0.176308 0.170855 0.453887 0.0483154 0.211869 0.0985613 0.0755549 -0.098202 0.380873 
-0.122008 0.560182 -0.347629 0.024673 0.116855 -0.0795095 -0.0316873 0.129161 -0.187374 
-0.0110814 0.0808129 -0.122979 -0.0118587 0.0392102 -0.0815183 0.0810056 0.00503232 0.262476 
-0.0203646 0.0694903 0.0289557 0.0349773 0.183398 0.240822 0.205867 0.165697 0.548304 
0.0781839 0.203005 0.15526 0.0735737 -0.177519 0.433386 -0.00374936 0.125614 -0.172099 
0.031674 0.333493 0.022192 0.0616589 0.074163 0.0460542 0.00516456 0.105916 -0.14078 
0.00341819 0.0684505 -0.132758 -0.10604 0.431428 -0.337514 -0.0296392 0.104039 -0.0938873 
0.165933 0.14965 0.381137 -0.0233009 0.186902 0.0804668 0.135792 0.212325 0.429404 
0.0811306 -0.0809192 0.377886 0.0267275 0.0988368 -0.115001 -0.166471 0.494062 -0.442671 
0.0207815 0.114382 -0.138553 0.0720566 0.154763 0.0988413 0.0251151 0.0750868 -0.13157 
0.0787955 0.00306904 0.190156 -0.0181587 0.118905 -0.177121 0.215995 0.139309 0.521048 
-0.0498494 0.201398 -0.0640392 0.030147 0.257278 0.213681 0.0769182 -0.155152 0.45632 
-0.0105363 0.464444 -0.113025 0.0338156 0.103141 -0.118744 0.052935 0.0493487 -0.016596 
0.0454412 0.0658375 -0.0915858 0.143396 0.122709 0.27642 0.00650831 0.100187 -0.192442 
0.149202 0.208385 0.393682 -0.049087 0.200944 -0.17059 -0.0370427 0.277718 0.0239776 
-0.0292391 0.497502 -0.160747 0.08184 -0.0740023 0.315296 0.072565 0.161609 0.064165 
0.0438075 0.0698221 -0.0792906 0.059713 0.0478187 -0.0354872 -0.136278 0.379222 -0.352386 
0.208675 0.106696 0.444901 0.0331528 0.0575104 -0.142922 0.0689229 -0.0151783 0.106631 
-0.0283997 0.166332 -0.215564 0.0400131 0.272256 0.155739 -0.0585724 0.26788 -0.104102 
0.0780287 -0.141113 0.40663 -0.0628457 0.51262 -0.226895 0.0511497 0.0175687 -0.0170885 
0.120938 0.0813444 0.170018 0.0659662 0.023839 0.0184221 0.0543351 0.00654732 -0.0521183 
-1.66142e-05 0.104302 -0.199208 0.15006 0.182186 0.301013 -0.0498712 0.223663 -0.164747 
-0.0236597 0.279545 -0.0184484 0.0232031 0.59126 -0.0439203 0.0727329 -0.0834747 0.21872 
0.0560411 0.286625 6.26876e-05 0.0643192 -0.00713631 0.0622194 0.0673238 -0.0418534 0.0521319 
0.0559427 -0.0444141 0.0665324 0.184342 0.0634826 0.335224 -0.0774025 0.326337 -0.210441 
0.0252729 0.0321507 -0.137599 -0.0264423 0.154889 -0.169042 0.0507032 0.237302 0.05456 
-0.039543 0.236673 -0.0987818 -0.0934445 0.436806 -0.252833 0.0686457 -0.141238 0.300548 
0.101158 0.0574835 0.0736173 0.0568126 -0.0459505 0.0971363 0.0715824 -0.0828846 0.14666 
0.0425387 -0.0391291 -0.0444857 -0.000615518 0.0797643 -0.140783 0.144034 0.125172 0.219165 
-0.0298288 0.166733 -0.11037 -0.00421471 0.2177 -0.0848303 0.0580682 0.66664 0.0317632 
0.0527434 -0.10876 0.150046 0.018284 0.442212 -0.0794133 0.0469829 -0.0899016 0.128804 
0.0515832 -0.103978 0.0668049 0.0670801 -0.116674 0.217378 0.0200871 0.00983744 -0.0973747 
0.141577 0.00910432 0.179091 -0.0105299 0.090201 -0.0840742 -0.016683 0.152365 -0.113334 
0.0556584 0.174969 -0.0152327 -0.0214428 0.368239 -0.0897992 -0.0800806 0.318293 -0.186318 
0.0432104 -0.157177 0.207397 0.0708376 0.242292 -0.00470575 0.0538948 -0.157903 0.178894 
0.0322936 -0.0549912 -0.0393677 0.00957443 0.0219335 -0.0457599 0.0541832 -0.143916 0.255546 
-0.00910467 0.0738108 -0.0825789 0.13702 0.0413802 0.191406 0.0065216 0.146453 -0.12533 
0.080269 0.710198 0.0797836 0.0353494 -0.148366 0.21309 -0.0492253 0.395985 -0.13534 
0.036026 -0.119261 0.0413966 0.0253439 -0.0300101 -0.014034 0.050384 -0.197506 0.274804 
0.00616462 -0.00257214 -0.026261 0.102254 0.0268962 0.0367403 -0.00506823 0.077251 -0.122707 
0.0725837 0.0967908 0.0494695 -0.00855862 0.348304 -0.0482717 0.0188986 -0.188017 0.243053 
0.0413667 -0.214855 0.335698 0.0334323 -0.0683778 0.00706682 0.0269389 0.441773 -0.0419686 
0.0339232 -0.182065 0.145691 0.0231305 -0.0675867 0.0353988 0.00105674 -0.00113401 -0.069597 
0.027079 0.0903774 -0.0306459 0.116715 -0.0263577 0.103971 0.0917323 0.723795 0.105649 
0.0273293 -0.216906 0.338785 -0.0397816 0.245247 -0.0713156 0.0326074 -0.10832 0.0350834 
0.029439 -0.234647 0.264139 0.037241 -0.110659 0.0833195 0.0145939 -0.0783443 0.0030481 
0.0137397 0.0384278 -0.0231076 0.0688673 0.294337 -0.00839542 0.091131 0.021057 0.123593 
0.0263671 0.443065 0.0167312 0.0246757 -0.163752 0.0970005 0.0439783 -0.124637 0.100227 
0.00989198 -0.243193 0.362094 -0.0184842 0.305633 -0.0265073 0.0311218 -0.149423 0.0818586 
0.0161275 -0.0298155 0.0204616 0.0557826 0.0593221 0.116091 0.0196356 -0.262957 0.345859 
0.086146 0.0633875 2.99578e-05 0.0977682 0.720183 0.121525 0.0163134 0.350092 0.0186656 
0.0146789 -0.221685 0.188868 0.0407372 -0.120793 0.0878894 0.0470377 -0.204261 0.153761 
0.0256702 -0.104429 0.0781405 0.0407589 0.0461898 0.138957 0.0449516 0.411432 0.0343556 
0.0837351 -0.00618003 0.0510448 0.0296394 -0.130543 0.0817859 0.00192286 -0.276693 0.365029 
0.0572895 -0.225723 0.198231 -0.00488004 0.197783 0.0292424 0.038935 -0.181656 0.14304 
0.0400111 -0.000797541 0.17732 0.0640081 0.0346113 0.124853 0.0034507 -0.252418 0.247896 
0.072176 0.312541 0.0221988 0.0996072 0.708812 0.12938 0.0153656 -0.1633 0.1079 
0.0426457 0.449599 0.062184 0.0570135 -0.205063 0.196948 0.0536442 -0.254642 0.20938 
0.05203 0.0673761 0.201539 0.0663479 0.110429 -0.00840647 0.0458414 -0.066469 0.219296 
0.0238583 0.261564 0.0918628 0.0466876 -0.164079 0.160664 -0.00832192 -0.250758 0.242549 
0.0665117 -0.306639 0.266738 0.0769898 0.377457 0.11699 0.051104 0.0538951 0.0385347 
0.0529151 0.0600316 0.273995 0.0545394 -0.146191 0.259541 0.00506313 -0.174366 0.125823 
0.0290398 0.312656 0.0663416 0.0990688 0.692133 0.134224 0.031197 -0.136827 0.123423 
0.0718339 -0.313201 0.293569 0.0317623 0.168694 0.138322 0.0695964 0.26603 0.0391035 
0.0400936 0.0812322 0.127664 0.0642962 -0.23491 0.295697 0.060211 0.0203217 0.336501 
0.0642322 -0.262445 0.268452 0.0023301 -0.151817 0.11429 0.0968829 0.674989 0.136627 
0.0415499 0.348286 0.0912483 0.0868219 0.313503 0.210269 0.0739219 -0.31771 0.32901 
0.0431341 0.157747 0.00311406 0.0415481 0.10394 0.232326 0.0693088 -0.048435 0.382234 
0.0347848 -0.148339 0.156386 0.047637 0.133416 0.184232 0.0801398 -0.365723 0.351889 
0.0228929 0.127865 0.0362843 0.0975484 0.341419 0.176115 0.0771818 -0.14201 0.405336 
0.0524101 0.09921 0.335469 0.0713531 -0.314854 0.319219 0.092635 0.649822 0.138054 