# vtk DataFile Version 3.0
vtk output
ASCII
DATASET POLYDATA
POINTS 724 float
10.2597 -10.492 11.2954 10.4934 -11.4899 11.2134 10.0723 -9.44813 11.5096 
10.7532 -12.4046 11.2124 9.95812 -8.51256 11.843 10.2222 -9.89114 11.711 
11.0234 -13.2048 11.2606 9.8985 -7.59404 12.3052 10.4102 -10.7266 11.6554 
10.1112 -9.07114 12.0054 10.6234 -11.5278 11.6578 10.8564 -12.3262 11.6484 
11.2594 -13.8105 11.3463 10.0337 -8.26066 12.3601 9.89767 -6.6962 12.8685 
10.299 -9.8563 12.0821 11.0757 -12.897 11.7708 10.5019 -10.7137 12.0744 
10.0006 -7.4295 12.8263 10.1888 -8.96772 12.433 11.4758 -14.2924 11.4741 
9.96675 -5.82144 13.5009 10.7575 -11.6482 12.0915 11.3127 -13.4833 11.8617 
10.0092 -6.54233 13.3618 10.1263 -8.08571 12.8702 10.3585 -9.72143 12.486 
11.0308 -12.4395 12.224 11.6767 -14.677 11.65 10.5475 -10.5347 12.493 
10.079 -5.16191 14.0496 10.1048 -7.12199 13.4074 10.2684 -8.79795 12.9047 
11.5379 -13.9623 11.9905 10.1041 -6.00582 13.9167 10.7686 -11.3276 12.5632 
11.3144 -13.1569 12.3525 10.4214 -9.52626 12.9367 10.2237 -7.83688 13.4096 
10.2332 -4.57482 14.6374 11.872 -14.9914 11.8858 11.7551 -14.3837 12.1382 
11.0309 -12.1144 12.7015 10.1983 -5.26625 14.4354 10.5887 -10.2549 12.971 
10.2026 -6.73875 13.9484 10.3602 -8.57275 13.4243 11.6003 -13.7859 12.4798 
10.7918 -10.9925 13.0645 10.2476 -5.82428 14.4591 10.3284 -7.5305 13.9627 
10.5043 -9.28528 13.4544 11.3341 -12.9151 12.8341 12.036 -15.207 12.1388 
10.3372 -4.63589 14.9944 10.4102 -4.05024 15.2736 11.8989 -14.4706 12.4773 
10.661 -9.97562 13.5061 11.0479 -11.7926 13.2015 10.3347 -6.4884 14.4964 
10.4714 -8.31489 13.9892 11.6675 -13.7004 12.9032 10.3556 -5.03278 15.0122 
12.0993 -14.8227 12.6446 10.8501 -10.6774 13.605 10.6185 -9.04283 14.0318 
10.4583 -7.26362 14.5347 11.3697 -12.6942 13.32 10.3935 -5.52546 15.0252 
10.4895 -4.2183 15.5675 10.573 -3.60649 15.8874 12.2163 -15.3893 12.4772 
11.9164 -14.1787 13.0137 10.7718 -9.71595 14.0962 11.0929 -11.4733 13.7278 
10.6069 -8.06763 14.5878 10.4689 -6.15927 15.0519 10.4982 -4.62408 15.5729 
11.6851 -13.4178 13.4614 12.1346 -14.5387 13.1685 10.7237 -3.19382 16.5038 
10.6295 -3.86212 16.1225 12.2988 -15.0039 13.0324 10.9473 -10.3855 14.1875 
10.7599 -8.80898 14.6526 10.5907 -6.93875 15.1072 10.5246 -5.13785 15.5593 
11.3895 -12.3127 13.8792 12.3963 -15.5127 12.8805 11.9786 -13.9754 13.6127 
10.6256 -4.32062 16.0861 10.9119 -9.47028 14.7257 10.594 -5.77978 15.5775 
10.7468 -7.77979 15.1901 11.1632 -11.0988 14.3113 11.7277 -13.1244 14.0456 
10.7814 -3.31237 16.7602 12.268 -14.5266 13.6464 10.9063 -2.69187 17.3005 
10.65 -4.83563 16.06 12.4628 -15.0187 13.5228 10.7165 -6.57698 15.6487 
10.9086 -8.54897 15.2816 11.075 -10.0912 14.815 10.7548 -3.68644 16.6632 
11.4419 -11.9194 14.4582 12.5619 -15.5752 13.3113 12.0886 -13.8866 14.1418 
10.7195 -5.4619 16.0795 10.7467 -4.10468 16.5922 10.8796 -7.44855 15.766 
11.0634 -9.2064 15.3683 11.2686 -10.75 14.9178 11.8026 -12.8703 14.5951 
12.3927 -14.4717 14.1561 10.9271 -2.95148 17.4184 11.0914 -2.18288 18.1315 
10.7736 -4.58911 16.5566 12.6056 -14.9577 14.0619 10.8417 -6.23016 16.1694 
11.0502 -8.24474 15.888 11.2188 -9.80461 15.4484 10.8764 -3.40509 17.2228 
12.7126 -15.5919 13.755 11.5223 -11.5511 15.025 12.1729 -13.6953 14.6947 
11.1251 -2.31049 18.309 10.8461 -5.16355 16.5879 10.8612 -3.85037 17.1036 
11.0052 -7.08965 16.3129 11.2097 -8.91394 15.9872 11.393 -10.4273 15.52 
12.4755 -14.2841 14.7315 11.8511 -12.4698 15.1525 11.0467 -2.73887 18.0032 
12.7712 -15.1176 14.3846 11.3245 -1.50728 19.1939 10.8934 -4.29927 17.0767 
10.9659 -5.88071 16.688 11.179 -7.89536 16.4573 11.3618 -9.50716 16.0588 
12.2009 -13.3007 15.2782 10.9866 -3.18725 17.7528 11.6105 -11.1372 15.6036 
12.6876 -14.619 14.8482 12.8795 -15.5681 14.311 11.3053 -1.81883 19.1509 
10.9681 -4.83719 17.1111 11.1246 -6.7036 16.8411 10.9804 -3.56491 17.6608 
11.3421 -8.57768 16.5665 12.4876 -13.8548 15.4044 11.522 -10.0871 16.1191 
11.891 -11.9532 15.7226 11.1647 -2.46297 18.5823 12.898 -14.9755 14.9932 
11.5369 -0.750506 20.2308 11.0868 -5.51183 17.2116 11.0131 -3.98138 17.6275 
11.2958 -7.49934 16.994 12.7312 -14.2924 15.4908 11.4946 -9.16687 16.643 
11.7122 -10.7134 16.192 12.2076 -12.7427 15.8821 11.1176 -2.84444 18.3896 
13.0247 -15.5106 14.8603 11.371 -1.73733 19.5137 11.5547 -0.916314 20.3602 
11.0879 -4.48999 17.6532 11.2402 -6.29495 17.3615 11.4595 -8.18448 17.1121 
11.1071 -3.21166 18.272 11.6501 -9.72145 16.707 12.5166 -13.4193 16.0252 
11.952 -11.4198 16.3061 12.9106 -14.5472 15.6581 11.3088 -2.10544 19.2848 
13.0561 -14.9863 15.5217 11.7315 0.237001 21.3388 11.2062 -5.13045 17.7455 
11.4059 -7.06763 17.5132 11.1345 -3.61985 18.2104 11.6151 -8.7754 17.1999 
11.8273 -10.2964 16.784 12.2449 -12.2068 16.4571 12.7643 -13.8657 16.1792 
11.2644 -2.4594 19.0851 13.1667 -15.416 15.4712 11.538 -1.17829 20.3532 
11.3571 -5.87921 17.8866 11.2064 -4.11435 18.2137 11.568 -7.74728 17.6363 
11.7734 -9.32461 17.2782 11.7234 -0.12256 21.3337 11.2471 -2.82601 18.9272 
12.9967 -14.3542 16.2081 12.0462 -10.9543 16.8895 12.5434 -12.9072 16.6304 
11.4764 -1.59752 20.0888 13.1623 -14.8162 16.1247 11.9193 1.2141 22.3266 
11.3258 -4.73693 18.2898 11.5184 -6.62669 18.0322 11.2657 -3.23505 18.8238 
11.7265 -8.3431 17.7357 11.9507 -9.89261 17.3649 12.312 -11.6924 17.0391 
11.4275 -1.99959 19.8316 12.8318 -13.5709 16.7278 11.6845 -0.554967 21.1754 
13.2817 -15.2998 16.0416 11.4789 -5.46531 18.4214 11.3316 -3.72886 18.7907 
11.6772 -7.29658 18.1549 13.0697 -14.1325 16.7368 11.8914 -8.90542 17.8284 
11.4028 -2.40136 19.6158 11.8822 0.68904 22.2144 12.163 -10.5278 17.4797 
12.6142 -12.5144 17.1769 11.629 -1.05633 20.8672 13.2477 -14.644 16.6627 
12.1392 2.06028 23.1779 11.4508 -4.34148 18.8439 11.6404 -6.19815 18.5606 
11.4112 -2.84127 19.4536 11.8366 -7.89831 18.2593 11.5869 -1.52724 20.5611 
12.0763 -9.48671 17.9334 12.9008 -13.2692 17.2497 12.4214 -11.2984 17.6107 
11.82 0.107782 21.9495 13.3748 -15.164 16.5723 11.47 -3.34385 19.3808 
11.6087 -5.06099 18.9636 11.5626 -1.99855 20.2792 11.7972 -6.86289 18.6791 
13.1383 -13.9024 17.238 12.0072 -8.47719 18.3628 11.7619 -0.500638 21.5867 
12.2961 -10.1579 18.057 12.0717 1.42914 22.9965 12.7086 -12.158 17.7251 
13.3195 -14.4582 17.1637 11.5723 -2.46491 20.0832 11.5869 -3.95322 19.4058 
11.724 -1.10721 21.1946 11.7753 -5.79267 19.0974 12.346 2.79952 23.842 
11.9555 -7.46901 18.7817 12.2029 -9.09565 18.4803 12.9807 -12.9688 17.7696 
11.9695 0.722835 22.6382 12.5543 -10.9554 18.1919 13.4511 -15.0076 17.0709 
11.8728 -0.108155 22.1192 11.7196 -1.61597 20.9085 11.628 -2.97697 19.9799 
11.7495 -4.67027 19.5093 13.208 -13.6553 17.7353 11.9338 -6.46072 19.2113 
12.1286 -8.06788 18.8851 12.4358 -9.80887 18.6244 12.8276 -11.8334 18.2935 
12.2658 2.03131 23.6203 13.3849 -14.2499 17.653 12.0712 0.941177 22.9949 
11.8541 -0.710923 21.7753 11.7434 -2.10318 20.704 11.741 -3.58521 19.976 
11.9242 -5.40912 19.6376 12.0906 -7.07551 19.3068 13.0778 -12.6677 18.3113 
12.507 3.4903 24.331 12.3319 -8.71746 19.0109 12.7018 -10.6407 18.7804 
13.5167 -14.8282 17.5506 12.3058 1.90335 23.7246 12.0053 0.276128 22.6366 
11.8727 -1.2352 21.5115 11.8035 -2.62761 20.5818 13.2862 -13.3877 18.2508 
11.9046 -4.2986 20.0588 12.0876 -6.0894 19.7474 12.2621 -7.68741 19.4041 
12.967 -11.5298 18.8857 12.5773 -9.47064 19.1772 12.5028 2.9624 24.2975 
13.4517 -14.0139 18.153 11.9944 -0.304695 22.3385 12.2302 1.28472 23.4529 
11.9164 -1.74472 21.3097 11.9141 -3.23796 20.553 12.0861 -5.04311 20.1777 
12.244 -6.71501 19.8365 13.1953 -12.3664 18.8861 12.4668 -8.35695 19.5304 
12.8541 -10.3385 19.3634 12.6486 4.24734 24.759 13.5777 -14.6245 18.0257 
12.4756 2.3731 24.1674 12.0249 -0.847929 22.0891 12.1727 0.683811 23.1577 
11.9886 -2.28739 21.1781 13.38 -13.1002 18.8014 12.0753 -3.94525 20.6133 
12.256 -5.73659 20.2844 12.4116 -7.33626 19.9251 13.117 -11.2374 19.4863 
12.7183 -9.13983 19.7105 12.6442 3.52399 24.6941 13.5278 -13.7465 18.6854 
12.4171 1.73259 23.9245 12.1555 0.102643 22.8778 12.0863 -1.38457 21.8917 
12.1018 -2.90479 21.1325 12.2597 -4.68793 20.7194 12.414 -6.37568 20.3696 
13.329 -12.0655 19.4854 12.6114 -8.01614 20.0445 13.0018 -10.0374 19.9217 
13.639 -14.3961 18.5079 12.7748 4.95133 25.1329 12.6232 2.83033 24.5422 
12.3628 1.11156 23.6501 12.1849 -0.463929 22.6342 13.4916 -12.7962 19.3896 
12.1753 -1.94958 21.7597 12.2601 -3.6055 21.1738 12.4353 -5.39074 20.8227 
12.5774 -7.00605 20.451 13.2644 -10.9448 20.0687 12.8582 -8.81322 20.2231 
12.7646 4.08132 25.0412 13.6188 -13.4463 19.2647 12.5872 2.1574 24.3231 
12.3377 0.50522 23.3797 12.2557 -1.02811 22.4429 12.2974 -2.57711 21.7082 
12.4433 -4.33982 21.2673 12.5964 -6.04341 20.9068 13.4669 -11.7616 20.0837 
12.7671 -7.69006 20.5579 13.1379 -9.72461 20.4434 13.7037 -14.1467 18.9994 
12.9114 5.60043 25.5295 12.7483 3.29277 24.8754 12.55 1.51288 24.0762 
12.3593 -0.0909582 23.1413 12.3603 -1.61509 22.3177 13.6136 -12.4798 19.9979 
12.4554 -3.27209 21.7401 12.6222 -5.04497 21.3668 12.7561 -6.68396 20.9828 
13.3965 -10.6344 20.6105 12.9983 -8.48425 20.7205 13.7712 -13.8846 19.488 
13.2615 -9.38841 20.9305 12.9328 -7.36756 21.076 12.7862 -5.70802 21.4516 
12.6358 -3.99523 21.826 12.7316 2.57059 24.6681 12.5298 0.882176 23.8274 
12.4945 -2.25104 22.2726 12.431 -0.683767 22.9579 12.8826 4.63267 25.3853 
13.5931 -11.4374 20.6539 13.7244 -13.1187 19.8873 13.1409 -8.14536 21.2139 
13.5089 -10.2908 21.1069 12.9428 -6.35721 21.5253 12.8145 -4.69764 21.9241 
12.6563 -2.93948 22.3079 13.7307 -12.1301 20.6025 12.5446 -1.29036 22.8464 
12.5483 0.258595 23.605 12.7179 1.89532 24.4454 12.86 3.7594 25.1921 
13.0703 6.21184 25.9958 13.8448 -13.5927 20.0027 13.3767 -9.02288 21.3974 
13.1062 -7.03761 21.6066 13.6996 -11.0798 21.1832 12.9794 -5.36631 22.0112 
12.8348 -3.65185 22.3964 12.6898 -1.92961 22.8184 12.617 -0.361127 23.4372 
12.7162 1.23929 24.2247 12.8536 2.97857 24.9828 13.8309 -12.7252 20.5398 
13.0148 5.18865 25.7676 13.2887 -7.79198 21.718 13.6045 -9.90559 21.5696 
13.1332 -6.0206 22.0857 13.0114 -4.3497 22.4998 12.8579 -2.60961 22.8699 
[...]
POINT_DATA 724
VECTORS velocity double
0.938179 -1.23517 1.34022 1.10808 -0.881421 1.46298 0.811713 -1.82779 1.16571 
1.30657 -0.674631 1.48335 0.723475 -2.51322 1.02229 0.811958 -1.72946 1.10341 
1.48463 -0.464595 1.38837 0.655148 -3.26756 0.936162 0.916902 -1.36685 1.19918 
0.713887 -2.31045 0.940645 1.06327 -1.16586 1.25897 1.25829 -1.01304 1.27742 
1.59324 -0.228667 1.22807 0.644773 -2.94825 0.838109 0.621646 -4.07036 0.901991 
0.740939 -1.95651 0.924263 1.3997 -0.966754 1.17534 0.837308 -1.62305 0.986712 
0.600122 -3.64765 0.797313 0.638517 -2.60172 0.760858 1.64827 0.0116376 1.03873 
0.632066 -4.96465 0.849833 1.01998 -1.4411 1.03744 1.54113 -0.791353 1.04146 
0.597118 -4.42034 0.803203 0.579597 -3.31246 0.687703 0.655477 -2.23941 0.734912 
1.21909 -1.43031 0.968965 1.66606 0.225155 0.842147 0.72903 -1.91676 0.770254 
0.654615 -5.7692 0.751754 0.567155 -4.09484 0.708819 0.567133 -2.93599 0.60544 
1.63081 -0.572893 0.875174 0.608118 -5.02292 0.747355 0.857097 -1.78427 0.785915 
1.4237 -1.32954 0.845496 0.572257 -2.56224 0.567918 0.540149 -3.69818 0.603465 
0.664991 -6.59777 0.618249 1.66027 0.403441 0.645168 1.67823 -0.301391 0.70307 
1.04701 -1.80252 0.745032 0.638918 -5.83801 0.672213 0.612151 -2.25581 0.56901 
0.569575 -4.52664 0.678091 0.519448 -3.30073 0.516323 1.58191 -1.04979 0.691139 
0.701081 -2.10044 0.571659 0.611903 -5.33367 0.665261 0.537198 -4.07725 0.595068 
0.510536 -2.92154 0.465292 1.29668 -1.75759 0.662399 1.64348 0.522789 0.486426 
0.650156 -6.65225 0.556034 0.655009 -7.36455 0.493654 1.68203 -0.398948 0.548547 
0.525332 -2.5996 0.445565 0.875693 -2.09647 0.560617 0.585477 -4.83178 0.649195 
0.510473 -3.66883 0.520387 1.5362 -1.38386 0.555715 0.637164 -6.21081 0.567746 
1.68374 -0.0681341 0.416953 0.582731 -2.38708 0.443043 0.490617 -3.27865 0.469417 
0.561553 -4.384 0.628338 1.16751 -2.08351 0.531409 0.623907 -5.69142 0.587592 
0.639277 -7.21418 0.460451 0.636123 -7.91902 0.430986 1.61772 0.61912 0.334323 
1.63376 -0.987622 0.45596 0.486681 -2.92624 0.441462 0.728601 -2.30888 0.453013 
0.538156 -3.9902 0.604351 0.610734 -5.13627 0.620377 0.632472 -6.71126 0.473237 
1.41451 -1.85584 0.474835 1.6673 -0.611049 0.372154 0.621661 -8.26214 0.452652 
0.622212 -7.60066 0.41207 1.66397 0.0416993 0.303534 0.515756 -2.6402 0.431703 
0.512845 -3.59816 0.577824 0.598869 -4.64755 0.669371 0.629131 -6.09221 0.506843 
0.980335 -2.32405 0.467378 1.58807 0.681638 0.224939 1.56473 -1.4245 0.422444 
0.618435 -7.01419 0.414391 0.493459 -3.21107 0.550689 0.627744 -5.43209 0.569508 
0.582952 -4.25037 0.716644 0.607808 -2.46396 0.441726 1.27498 -2.1636 0.482221 
0.610719 -8.04682 0.451125 1.64465 -0.737132 0.362028 0.628083 -8.39879 0.640165 
0.622621 -6.35218 0.44383 1.64178 -0.0179772 0.282195 0.626431 -4.84927 0.673744 
0.554555 -3.85284 0.730311 0.494266 -2.86127 0.529298 0.601414 -7.63333 0.409165 
0.812079 -2.40556 0.482403 1.55822 0.715955 0.181784 1.51322 -1.58668 0.477566 
0.629908 -5.63422 0.514219 0.600143 -7.10751 0.391612 0.61654 -4.41724 0.78967 
0.521128 -3.43445 0.709974 0.538465 -2.57168 0.520799 1.14822 -2.26376 0.556122 
1.60745 -0.83579 0.437217 0.607583 -8.07019 0.590508 0.688795 -8.2868 1.0447 
0.608619 -6.4731 0.406592 1.60947 -0.113813 0.357232 0.63362 -4.97654 0.641961 
0.584811 -4.01013 0.847728 0.496867 -3.0237 0.672989 0.583791 -7.66064 0.469302 
1.52648 0.736777 0.204649 0.682257 -2.38592 0.547923 1.42161 -1.72049 0.60434 
0.673472 -8.04334 1.03614 0.618334 -5.7618 0.466424 0.579531 -7.14867 0.40948 
0.622725 -4.48479 0.797125 0.539042 -3.56562 0.837939 0.500626 -2.64185 0.635275 
1.53382 -1.00847 0.594147 0.963374 -2.2522 0.641178 0.607026 -7.84909 0.76842 
1.55743 0.161413 0.40162 0.896841 -8.00573 1.81248 0.586714 -6.55606 0.398338 
0.619504 -5.0525 0.589805 0.585256 -4.05658 0.889241 0.495972 -3.11471 0.791638 
1.24239 -1.86263 0.740695 0.569093 -7.51936 0.577285 0.569917 -2.34114 0.628329 
1.5343 -0.486226 0.593463 1.47846 0.759254 0.304249 0.8071 -7.80264 1.58329 
0.593868 -5.85351 0.435247 0.600214 -4.4829 0.751227 0.558413 -7.10063 0.485945 
0.531151 -3.60014 0.89561 1.3688 -1.30435 0.785539 0.470591 -2.68726 0.737142 
0.748903 -2.14651 0.693512 0.633143 -7.64185 1.03001 1.48589 0.0915816 0.57675 
1.21264 -7.68616 2.6602 0.587553 -5.10268 0.536861 0.560209 -6.56885 0.438271 
0.554748 -4.01634 0.860747 1.40865 -0.715681 0.781189 0.478027 -3.13889 0.854956 
0.484002 -2.31133 0.701466 0.979761 -1.89021 0.807927 0.574423 -7.36675 0.806326 
1.4132 0.785403 0.440237 0.838494 -7.57347 1.73782 1.16057 -7.53351 2.54666 
0.561167 -5.89718 0.439603 0.556239 -4.45329 0.682524 0.496001 -3.55627 0.886087 
0.548416 -7.01136 0.653972 0.436656 -2.69553 0.799887 1.15065 -1.41419 0.882179 
0.56773 -2.02504 0.720496 1.3738 -0.286053 0.778189 0.713232 -7.39535 1.41919 
1.37219 0.277751 0.680399 1.45133 -7.20264 3.45503 0.544712 -5.13205 0.5065 
0.501344 -3.9329 0.792665 0.538932 -6.53722 0.549117 0.439391 -3.09824 0.861537 
0.418228 -2.28303 0.753572 0.735385 -1.78514 0.806947 1.19725 -0.897518 0.891167 
0.627594 -7.17471 1.1502 1.30974 0.81643 0.577629 1.05232 -7.3708 2.32503 
0.50061 -4.42316 0.623872 0.529588 -5.90806 0.49707 0.438578 -3.46028 0.831761 
0.392089 -2.65215 0.819276 1.35002 -7.19879 3.17076 0.575022 -6.87946 0.92615 
1.22119 -0.291575 0.842347 0.445992 -1.92798 0.743391 0.890786 -1.43493 0.884144 
0.892914 -7.22697 1.94941 1.22319 0.273215 0.758554 1.54597 -6.82522 4.021 
0.501213 -5.1496 0.515377 0.435949 -3.84669 0.721757 0.543394 -6.46627 0.747031 
0.380996 -3.00331 0.825447 0.36126 -2.22269 0.780965 0.540914 -1.65581 0.791998 
0.764482 -7.03774 1.60221 0.999285 -0.897366 0.890353 1.22169 -7.15704 2.82658 
1.17868 0.835315 0.645814 0.444061 -4.4068 0.59597 0.515844 -5.88839 0.621818 
0.368354 -3.34833 0.764114 1.04423 -0.303858 0.832777 0.333969 -2.5557 0.803329 
0.670153 -6.77724 1.29382 1.41284 -6.92167 3.6061 0.362855 -1.83846 0.771212 
0.689502 -1.35195 0.856881 1.07847 -7.0841 2.4276 1.05663 0.269388 0.74724 
1.65757 -6.80877 4.41739 0.470427 -5.15912 0.574118 0.370248 -3.78558 0.674643 
0.599728 -6.40064 1.02315 0.309596 -2.8822 0.769927 0.944255 -6.94253 2.04131 
0.303439 -2.12235 0.788765 0.805652 -0.880179 0.848727 0.424166 -1.53604 0.809322 
1.29449 -6.95767 3.19205 1.02815 0.831579 0.636113 0.54063 -5.86705 0.813325 
0.398075 -4.40888 0.605945 0.819073 -6.7086 1.66246 0.297921 -3.25677 0.711321 
0.863273 -0.314235 0.774799 0.264882 -2.43064 0.766759 1.19087 -6.95089 2.78089 
0.304645 -1.73129 0.80749 1.46765 -6.88191 3.91015 0.537207 -1.26054 0.851227 
0.883581 0.249589 0.678696 0.714118 -6.35991 1.33022 0.468327 -5.17595 0.68453 
1.08092 -6.8641 2.35311 0.315299 -3.76117 0.659485 1.76159 -6.89141 4.60448 
0.237597 -2.77457 0.719859 0.242102 -1.99564 0.782449 0.635698 -0.852195 0.810431 
1.3247 -6.88113 3.43139 0.355849 -1.43654 0.868548 0.86802 0.801813 0.566223 
1.22359 -6.86959 2.93424 0.97385 -6.67041 1.97336 0.616352 -5.86416 1.04796 
0.374612 -4.43629 0.651804 0.68998 -0.330654 0.704581 0.239547 -3.20864 0.685306 
0.194997 -2.31392 0.727541 0.25752 -1.62154 0.849255 0.438999 -1.18568 0.89872 
1.52467 -7.00158 4.05436 0.711962 0.210511 0.585166 1.31886 -6.91384 3.42499 
1.16126 -6.80842 2.55549 0.860985 -6.35834 1.61972 0.506335 -5.21322 0.836748 
0.28066 -3.77742 0.670817 0.178339 -2.70976 0.689527 0.50321 -0.82532 0.812862 
1.84722 -6.81293 4.65318 0.180762 -1.88119 0.7679 0.319948 -1.36403 0.962952 
0.706496 0.747999 0.462646 1.4521 -7.06924 3.82296 1.24052 -6.8671 3.02162 
1.09383 -6.6611 2.2065 0.733204 -5.89983 1.2901 0.536879 -0.351999 0.656927 
0.382406 -4.49447 0.728125 0.202183 -3.2101 0.68175 0.136812 -2.2408 0.698321 
0.388425 -1.14174 1.00327 0.21491 -1.53513 0.883991 1.64654 -7.0499 4.24021 
0.550301 0.156865 0.497572 1.20117 -6.8088 2.68061 1.33429 -7.03202 3.42716 
0.997592 -6.39497 1.85761 0.583078 -5.28644 1.01029 0.272562 -3.83412 0.700642 
0.140997 -2.7 0.677998 0.416745 -0.809121 0.877014 0.127623 -1.81174 0.749683 
0.298815 -1.32927 1.06156 1.94037 -6.48527 4.61278 0.550908 0.675987 0.35239 
1.48275 -7.18012 3.82326 1.16242 -6.69202 2.35655 1.26043 -6.96752 3.06883 
0.859761 -5.97736 1.50648 0.41746 -0.375487 0.662055 0.423508 -4.59043 0.827292 
0.190315 -3.25854 0.69141 0.0996442 -2.22637 0.681433 0.366624 -1.13411 1.13091 
0.174866 -1.49356 0.896959 1.68032 -6.94209 4.18586 0.40968 0.0959245 0.44736 
1.3648 -7.19421 3.4404 1.2199 -6.89347 2.74034 1.09068 -6.46715 2.02297 
0.680531 -5.39899 1.18143 0.292838 -3.9304 0.745888 0.12934 -2.74164 0.677877 
0.370642 -0.810369 0.988337 0.0905467 -1.80181 0.730029 0.275784 -1.33524 1.1222 
0.409966 0.593515 0.262151 2.02244 -6.02583 4.49419 1.49806 -7.20416 3.77737 
1.28461 -7.14115 3.08623 1.18945 -6.78236 2.42711 0.339518 -0.400119 0.73003 
0.961072 -6.08962 1.67202 0.489564 -4.72344 0.939869 0.203984 -3.34635 0.710875 
0.0871936 -2.26673 0.672978 0.347798 -1.15949 1.22386 0.138959 -1.50272 0.880644 
1.71151 -6.69031 4.09824 0.30294 0.0362294 0.460714 1.37911 -7.30972 3.40603 
1.23261 -7.05776 2.75262 1.13334 -6.58093 2.1081 0.772253 -5.54433 1.32913 
0.337561 -4.06107 0.808174 0.142246 -2.82308 0.685866 0.342801 -0.832634 1.09418 
0.0734916 -1.84733 0.709358 0.241561 -1.37253 1.11858 0.294273 0.509997 0.215743 
2.08109 -5.5659 4.35092 1.50168 -7.11859 3.70555 1.2979 -7.31153 3.05735 
1.19408 -6.9398 2.43513 1.01833 -6.23442 1.77127 0.294345 -0.42875 0.830356 
0.564321 -4.88641 1.05517 0.239765 -3.46505 0.745603 0.0982124 -2.34807 0.671497 
0.313999 -1.2098 1.24115 0.110298 -1.55475 0.838176 0.211467 0.434114 0.223338 
0.196841 -1.42727 1.05242 0.0762949 -1.93361 0.690687 0.175673 -2.93275 0.708321 
0.397973 -4.21967 0.889759 1.3735 -7.34324 3.34078 1.23786 -7.25207 2.72006 
0.836924 -5.71769 1.43644 1.13904 -6.74503 2.12169 1.73454 -6.33932 3.97388 
0.310005 -0.882709 1.14305 0.234643 -0.0147464 0.534581 0.0924657 -1.63673 0.782312 
0.262018 -1.27484 1.17879 0.128714 -2.45655 0.68439 0.292206 -3.60865 0.806404 
0.631001 -5.07549 1.16129 0.260928 -0.482946 0.913192 1.03315 -6.41609 1.80217 
1.18669 -7.14116 2.39392 1.29095 -7.42754 2.99414 1.49442 -6.9259 3.60467 
2.11138 -5.15351 4.27475 0.155315 0.363556 0.278736 0.149422 -1.49004 0.946509 
0.0968242 -2.04525 0.684789 0.261425 -0.961317 1.11443 0.224971 -3.06492 0.760104 
0.463381 -4.40382 0.989211 0.867477 -5.92244 1.494 1.12191 -6.95032 2.07866 
1.22739 -7.4233 2.65313 1.34934 -7.2877 3.24897 0.195214 -0.0902083 0.641736 
1.74657 -5.93065 3.83822 0.0889758 -1.73768 0.733697 0.19838 -1.34398 1.05755 
0.174489 -2.58554 0.728742 0.355639 -3.77824 0.903173 0.679269 -5.29437 1.2466 
1.01751 -6.63286 1.77566 0.219151 -0.57264 0.931025 1.1658 -7.34563 2.31771 
1.26074 -7.47105 2.90317 1.47877 -6.63067 3.47632 2.10878 -4.74859 4.32357 
0.117338 0.289947 0.364012 0.109883 -1.55854 0.834025 0.132721 -2.17455 0.711525 
0.198579 -1.05849 1.01802 0.286785 -3.22366 0.858757 0.525551 -4.62021 1.10019 
0.868295 -6.15686 1.50343 1.08929 -7.17451 1.99956 1.19407 -7.5391 2.55883 
1.31009 -7.13856 3.13095 0.157981 -0.177666 0.694084 1.75139 -5.47528 3.75689 
0.102319 -1.85344 0.718838 0.134066 -1.4082 0.909851 0.232819 -2.74046 0.82633 
0.425646 -3.98405 1.03895 0.70771 -5.54615 1.30613 0.162819 -0.683848 0.870873 
0.982365 -6.86797 1.71141 1.2084 -7.43769 2.78615 1.12632 -7.51775 2.22118 
1.46046 -6.22769 3.34361 0.0853525 0.20188 0.432528 2.06057 -4.30513 4.40981 
0.0879224 -1.63641 0.75244 0.182102 -2.32715 0.795557 0.129681 -1.15462 0.880283 
0.359097 -3.42222 1.01537 0.581003 -4.87791 1.21501 0.849641 -6.40876 1.48162 
1.04142 -7.38214 1.90178 1.25869 -6.88647 2.98809 1.13577 -7.58531 2.44867 
0.109059 -0.292067 0.670526 1.75596 -4.94128 3.80775 0.133071 -1.99024 0.766304 
0.0814585 -1.46599 0.77522 0.302275 -2.93686 0.99312 0.498691 -4.23763 1.20674 
0.72165 -5.82044 1.34889 0.097311 -0.807235 0.758083 0.934932 -7.09626 1.634 
1.06389 -7.63007 2.11007 1.13868 -7.28236 2.66028 1.44336 -5.75125 3.25686 
0.0452716 0.0838082 0.442804 0.0890917 -1.73383 0.737708 0.243211 -2.51946 0.955348 
1.95849 -3.86272 4.33612 0.0645356 -1.23873 0.734308 0.438888 -3.67261 1.22499 
0.628648 -5.16801 1.33052 0.821425 -6.65428 1.45544 0.977415 -7.54512 1.79989 
1.05401 -7.54682 2.32148 1.23141 -6.33116 2.89293 0.0489862 -0.431468 0.585059 
1.62555 -4.72825 3.64928 0.0512857 -1.52849 0.696243 0.179301 -2.16423 0.896423 
0.379646 -3.186 1.22513 0.568681 -4.53 1.39011 0.0307173 -0.928738 0.62283 
0.727319 -6.08847 1.39498 0.879428 -7.28844 1.567 0.978948 -7.67259 1.98753 
1.0634 -6.96182 2.53199 -0.00719776 -0.0688319 0.387378 0.113276 -1.86788 0.815071 
1.26745 -5.58813 2.9576 0.0143254 -1.30876 0.619435 0.311893 -2.76265 1.18679 
0.516988 -3.96043 1.45994 1.83715 -3.54261 4.08759 0.666133 -5.45371 1.44859 
0.953792 -7.40388 2.17748 0.790099 -6.86136 1.45227 0.89809 -7.64383 1.70253 
-0.0155682 -0.582826 0.465163 0.0493233 -1.61633 0.709863 1.59055 -4.22492 3.6514 
0.23537 -2.38719 1.10516 0.996039 -6.4805 2.42237 0.454611 -3.46825 1.48737 
-0.0273244 -1.03434 0.499125 0.62437 -4.8157 1.56574 0.873735 -7.63716 1.84923 
0.727091 -6.30916 1.46293 0.818343 -7.41465 1.52798 -0.0670943 -0.246685 0.286946 
1.23825 -5.08244 2.96022 0.15381 -2.05129 0.982807 -0.0101351 -1.37791 0.580177 
0.377366 -3.0347 1.4511 0.839232 -7.14862 2.00899 0.576979 -4.23008 1.67451 
0.805185 -7.66278 1.61195 0.687853 -5.68241 1.56757 0.757052 -6.99262 1.48883 
1.701 -3.29673 3.72781 -0.0755231 -0.728229 0.343823 0.914284 -5.99387 2.30251 
0.0720656 -1.74924 0.825921 0.289501 -2.63847 1.35186 1.5143 -3.82141 3.48101 
0.749984 -7.50604 1.69015 0.509497 -3.71915 1.72089 -0.0654429 -1.11999 0.428996 
0.653392 -5.03167 1.70875 0.752282 -7.44584 1.52212 0.717535 -6.43894 1.55572 
-0.124786 -0.431444 0.176197 1.2062 -4.58389 2.9498 -0.00532769 -1.47074 0.64403 
0.711142 -6.76757 1.8213 0.197256 -2.2686 1.20023 0.42246 -3.26775 1.68418 
0.604028 -4.41513 1.82549 0.69887 -7.5763 1.52399 0.68716 -5.80363 1.67683 
0.717975 -7.012 1.55844 1.55954 -3.10489 3.3208 -0.11908 -0.85165 0.263587 
0.85443 -5.41029 2.25662 0.106062 -1.92341 1.00979 0.324079 -2.8496 1.56907 
-0.0753703 -1.19864 0.449024 0.608124 -7.22306 1.51296 1.41705 -3.49219 3.18861 
0.530746 -3.87158 1.87412 0.64986 -5.13262 1.80306 0.675905 -7.35343 1.52894 
0.691982 -6.43855 1.65477 1.16962 -4.09875 2.85574 -0.166689 -0.60345 0.103859 
0.593422 -6.17049 1.68111 0.0202099 -1.60332 0.794624 0.222687 -2.44752 1.39171 
0.436619 -3.39892 1.83496 0.594252 -4.47901 1.89625 0.57163 -7.32517 1.4144 
0.661309 -5.79097 1.76005 0.664213 -6.88866 1.62364 1.41472 -2.94275 2.89483 
-0.13313 -0.955253 0.275719 0.825534 -4.78714 2.25414 -0.0580899 -1.30136 0.565216 
0.331694 -2.968 1.71067 0.123248 -2.05496 1.16804 0.516161 -3.89417 1.93006 
0.454952 -6.62581 1.34042 0.617093 -5.10723 1.84587 0.645277 -6.29354 1.72425 
0.578396 -7.10134 1.49527 1.30495 -3.21696 2.81221 1.11513 -3.69413 2.64129 
-0.174538 -0.758501 0.138451 0.553292 -5.23049 1.71735 0.225737 -2.55123 1.51785 
0.418666 -3.39561 1.88681 0.554947 -4.42861 1.89675 0.0267906 -1.6634 0.902797 
0.612219 -5.64274 1.79814 0.419258 -6.8287 1.24576 0.585914 -6.61671 1.6252 
1.26542 -2.79423 2.45677 -0.0859145 -1.1854 0.508627 0.89313 -3.95146 2.28256 
0.310658 -2.95675 1.7599 0.474194 -3.80603 1.90302 0.123453 -2.13057 1.27156 
0.563002 -4.96774 1.83827 0.339656 -5.73459 1.2406 0.574374 -6.01282 1.7204 
0.446095 -6.65846 1.35567 1.15027 -3.12921 2.41838 -0.145235 -0.903484 0.29418 
0.0208441 -1.66954 0.954011 0.377774 -3.27971 1.85344 0.588349 -4.39379 1.78055 
0.201561 -2.53178 1.55447 0.497157 -4.28868 1.84445 0.542492 -5.37723 1.76663 
0.475603 -6.20179 1.50943 0.256421 -6.02272 1.03124 1.13241 -2.67115 2.07093 
-0.0565931 -1.30441 0.672967 0.913937 -3.41306 2.09169 0.27253 -2.84195 1.73455 
0.0947382 -2.07191 1.27036 0.416251 -3.646 1.81805 0.493439 -4.73161 1.77267 
0.476636 -5.6209 1.60571 0.326845 -4.74101 1.28137 0.283214 -6.00854 1.09821 
1.04819 -2.925 2.04321 0.168461 -2.44344 1.53971 0.324168 -3.09411 1.75754 
-0.0968145 -1.09012 0.530193 0.678963 -3.63302 1.7236 0.428644 -4.0799 1.74562 
0.452505 -5.01659 1.64209 0.332106 -5.65614 1.25763 0.000800006 -1.6152 0.958235 
0.148776 -5.09572 0.883463 0.992575 -2.55032 1.67135 0.902754 -2.93791 1.73124 
0.07639 -2.04965 1.29002 0.227819 -2.6613 1.65419 0.350729 -3.44516 1.69152 
0.408956 -4.41156 1.63349 0.353516 -5.13922 1.37272 0.36958 -4.02157 1.25551 
0.121958 -5.20647 0.793748 0.136781 -2.31479 1.49811 -0.0639455 -1.26051 0.716016 
0.265233 -2.88069 1.61679 0.666476 -3.21132 1.43575 0.349338 -3.80103 1.5904 
0.34243 -4.58175 1.41814 0.176197 -5.01561 0.921091 0.00218113 -1.6836 1.04413 
0.126728 -4.29505 0.807411 0.871635 -2.45445 1.3308 0.058251 -1.99667 1.2978 
0.802054 -2.74855 1.34736 0.17985 -2.43934 1.52219 0.277043 -3.19135 1.52107 
0.215149 -4.59361 1.05081 0.0164893 -4.4744 0.550417 0.307733 -4.02205 1.41073 
0.416544 -3.44281 1.07036 0.100646 -2.11001 1.3984 -0.0488622 -1.39736 0.856036 
0.197188 -2.61984 1.43238 0.117524 -3.78517 0.636306 0.0411644 -4.37306 0.581387 
0.216394 -4.09625 1.10891 0.25666 -3.45655 1.36778 -0.00777327 -1.67607 1.0875 
0.647725 -2.80294 1.04993 0.73908 -2.36355 0.963072 0.0325685 -1.8403 1.24176 
0.117186 -2.14231 1.32997 0.371783 -3.1435 0.75268 -0.0443148 -3.93212 0.326163 
0.0788087 -4.03325 0.683911 0.193588 -2.88283 1.2991 0.191653 -3.58377 1.11256 
0.0427827 -1.78115 1.20741 -0.0514245 -1.41941 0.926851 0.622261 -2.30049 0.643974 
0.534331 -2.67711 0.679676 0.0756423 -3.43645 0.34928 0.12206 -2.31673 1.20854 
-0.0607473 -3.82185 0.258754 0.0886425 -3.59584 0.752719 0.151239 -3.06676 1.08198 
-0.0172165 -1.56148 1.07824 0.272398 -2.95516 0.368897 0.0493916 -1.80943 1.1056 
-0.0322384 -3.53825 0.326538 -0.0870292 -3.50445 0.051251 0.101625 -2.54873 1.0286 
0.0713837 -3.11872 0.771402 -0.0153326 -1.44344 1.00469 0.493704 -2.25353 0.299761 
0.400767 -2.58343 0.289884 -0.0607729 -1.2842 0.899887 0.0465693 -2.03187 0.957116 
-0.0181835 -3.13779 0.408455 -0.13065 -3.42082 -0.0508563 0.0514004 -3.06518 -0.00591976 
0.0371238 -2.63355 0.749783 -0.00515237 -1.56448 0.887023 -0.105925 -3.15861 0.0197896 
-0.123071 -3.16532 -0.279706 -0.036428 -2.67125 0.427367 0.223257 -2.63104 -0.0646257 
-0.00114332 -2.15721 0.714568 -0.0468974 -1.23378 0.811707 -0.0715106 -1.08955 0.788325 
0.347264 -2.2309 -0.0785296 -0.18247 -3.13959 -0.344839 -0.0956251 -2.76254 0.0972152 
-0.0398592 -1.67898 0.66949 -0.071109 -2.18862 0.40622 0.0325043 -2.7171 -0.397316 
-0.0749017 -1.23349 0.616409 -0.159994 -2.87732 -0.278075 -0.183964 -2.94459 -0.613962 
0.196395 -2.23514 -0.446363 -0.116955 -2.28585 0.114549 -0.0953012 -0.915288 0.591548 
-0.101548 -1.73396 0.392914 -0.145195 -2.48959 -0.182342 -0.240764 -2.8923 -0.693318 
-0.0929259 -2.6088 -0.780373 -0.124037 -1.26438 0.387256 -0.155001 -1.78226 0.0903546 
0.03951 -2.26065 -0.799484 -0.138133 -0.85776 0.365971 -0.209963 -2.66368 -0.596491 
-0.253778 -2.67502 -1.03459 -0.162754 -2.01598 -0.157914 -0.174757 -1.30811 0.151216 
-0.176669 -2.30183 -0.444835 -0.156465 -2.31009 -1.19631 -0.313 -2.63812 -1.11094 
-0.195061 -0.858601 0.124117 -0.203207 -1.35455 -0.0706246 -0.191274 -1.59183 -0.231809 
-0.271125 -2.47641 -0.955071 -0.1785 -1.86938 -0.430477 -0.324872 -2.35979 -1.48782 
-0.231698 -0.929641 -0.0963669 -0.20957 -2.17708 -0.727969 -0.390618 -2.3523 -1.52639 
-0.216658 -1.15328 -0.277561 -0.308211 -2.19457 -1.20551 -0.182265 -1.48295 -0.452674 
-0.1976 -1.85456 -0.740203 
