# vtk DataFile Version 3.0
vtk output
ASCII
DATASET POLYDATA
POINTS 724 float
10.7346 -11.262 11.6565 11.0827 -12.075 11.6469 10.4038 -10.4643 11.7916 
11.4076 -12.8246 11.704 10.1697 -9.83354 12.0323 10.5922 -10.9005 11.9753 
11.7256 -13.4864 11.7468 10.0091 -9.2948 12.3827 10.8852 -11.5881 11.9704 
10.3662 -10.3289 12.1907 11.1774 -12.2623 12.0281 11.4703 -12.9104 12.0692 
12.0103 -14.0072 11.7609 10.1915 -9.81578 12.4626 9.92611 -8.82612 12.8287 
10.6385 -11.0022 12.292 11.7257 -13.4094 12.1751 10.9421 -11.7262 12.3342 
10.0785 -9.35159 12.8388 10.409 -10.3944 12.5645 12.2756 -14.439 11.7805 
9.92555 -8.39246 13.3515 11.2839 -12.5098 12.419 12.0218 -13.9106 12.2031 
10.0222 -8.88031 13.2823 10.2532 -9.85755 12.9275 10.6595 -11.0328 12.6531 
11.6121 -13.1869 12.574 12.5185 -14.7937 11.8362 10.9412 -11.7214 12.7083 
9.98328 -8.06036 13.8307 10.1622 -9.31869 13.3885 10.459 -10.4245 13.0106 
12.3095 -14.3326 12.2321 10.0886 -8.65788 13.7914 11.2361 -12.4018 12.835 
11.9701 -13.7936 12.6539 10.6882 -11.0298 13.0872 10.3371 -9.85083 13.4662 
10.0836 -7.73985 14.385 12.7469 -15.0879 11.9517 12.5853 -14.6968 12.2689 
11.5595 -13.067 13.0137 10.1301 -8.2404 14.2514 10.9361 -11.6498 13.1658 
10.2553 -9.20051 13.9292 10.5378 -10.4245 13.5492 12.3497 -14.3214 12.6751 
11.2125 -12.2832 13.313 10.2475 -8.65897 14.3632 10.448 -9.78701 14.0579 
10.7532 -11.008 13.6315 11.9499 -13.7218 13.1211 12.9313 -15.2901 12.1131 
10.2158 -7.8495 14.7893 10.2092 -7.38493 15.0342 12.7489 -14.832 12.5394 
10.985 -11.5898 13.726 11.5382 -12.9427 13.504 10.408 -9.14578 14.5209 
10.6579 -10.3923 14.1762 12.4082 -14.3395 13.0852 10.2956 -8.16095 14.8682 
12.9899 -15.0996 12.6254 11.2476 -12.1796 13.8718 10.8746 -10.9799 14.276 
10.6017 -9.71322 14.6921 11.9588 -13.6456 13.6231 10.4046 -8.52792 14.9668 
10.3368 -7.53883 15.3927 10.331 -6.97674 15.6927 13.1266 -15.4579 12.3763 
12.7384 -14.7034 13.1088 11.0991 -11.5352 14.3754 11.5637 -12.8105 14.0457 
10.8148 -10.3214 14.8467 10.5584 -8.98276 15.1131 10.4165 -7.86994 15.4562 
12.3904 -14.2016 13.7025 13.0092 -14.9584 13.2063 10.4643 -6.49195 16.377 
10.4519 -7.18236 15.9922 13.21 -15.2464 12.9838 11.3441 -12.0771 14.4954 
11.0326 -10.9064 14.9623 10.7516 -9.53336 15.3049 10.5261 -8.26285 15.5232 
11.9464 -13.4414 14.2237 13.3149 -15.5622 12.7508 12.7838 -14.6045 13.7902 
10.5281 -7.57856 16.0071 11.2492 -11.4368 15.054 10.6843 -8.72294 15.6548 
10.9639 -10.1401 15.4891 11.6248 -12.623 14.6497 12.4028 -14.0314 14.3683 
10.5691 -6.54757 16.685 13.1509 -14.9604 13.7476 10.6896 -5.81701 17.32 
10.6418 -7.99023 16.0525 13.3818 -15.2576 13.5327 10.8821 -9.26593 15.8589 
11.1778 -10.7206 15.6218 11.4715 -11.9232 15.1506 10.5896 -6.91077 16.5987 
11.9747 -13.211 14.8259 13.4845 -15.5999 13.2134 12.8915 -14.5512 14.4066 
10.8052 -8.44622 16.1725 10.6474 -7.2897 16.5593 11.0892 -9.85578 16.0764 
11.3846 -11.2296 15.7148 11.7179 -12.41 15.2605 12.4483 -13.8659 14.9697 
13.2752 -14.9158 14.3585 10.7538 -6.03065 17.4589 10.9522 -5.04736 18.3723 
10.7581 -7.69325 16.5802 13.5248 -15.2028 14.1885 11.0023 -8.95725 16.3814 
11.2903 -10.4162 16.2387 11.5878 -11.6866 15.7893 10.7263 -6.4978 17.2315 
13.6375 -15.5914 13.7379 12.0258 -12.9638 15.385 12.944 -14.4125 15.0444 
11.0184 -5.11585 18.5777 10.9197 -8.11904 16.694 10.7628 -6.92053 17.119 
11.1996 -9.50644 16.6225 11.4828 -10.9064 16.3432 11.8049 -12.1422 15.855 
13.3267 -14.7783 15.0459 12.4329 -13.5724 15.5395 10.9305 -5.64045 18.174 
13.692 -15.2813 14.56 11.2799 -3.98409 19.7569 10.8671 -7.302 17.1305 
11.1116 -8.59432 16.8956 11.3832 -10.0331 16.8156 11.6697 -11.3482 16.408 
12.8826 -14.109 15.6792 10.8752 -6.13111 17.8569 12.0608 -12.6302 15.9432 
13.5654 -14.9696 15.1516 13.8027 -15.5518 14.4201 11.2661 -4.32275 19.6505 
11.0227 -7.7108 17.2284 11.2999 -9.10562 17.1422 10.9025 -6.48963 17.7519 
11.5583 -10.5008 16.94 13.2341 -14.4486 15.8053 11.8633 -11.7731 16.4599 
12.3841 -13.1582 16.0893 11.0907 -5.1611 18.8922 13.7866 -15.169 15.2852 
11.6843 -3.08268 21.1377 11.2092 -8.16728 17.4126 10.9897 -6.85081 17.7326 
11.4701 -9.60292 17.3547 13.5191 -14.709 15.8823 11.7292 -10.9195 17.0184 
12.0822 -12.2097 16.5311 12.7568 -13.6459 16.2887 11.05 -5.5938 18.6325 
13.9313 -15.4986 15.0795 11.3711 -4.15021 20.0882 11.7188 -3.26064 21.2311 
11.1316 -7.24873 17.7979 11.3913 -8.65884 17.6474 11.6312 -10.0487 17.5032 
11.0638 -5.96982 18.4774 11.906 -11.3169 17.0801 13.1253 -14.0546 16.4596 
12.3454 -12.6679 16.6636 13.6985 -14.8408 16.0485 11.2845 -4.56814 19.7616 
13.8908 -15.1301 15.8705 12.1236 -2.02681 22.546 11.3076 -7.69714 17.9514 
11.5538 -9.13983 17.8635 11.1327 -6.3473 18.4022 11.7915 -10.4478 17.6069 
12.1031 -11.7174 17.1583 12.6689 -13.1511 16.8608 13.4 -14.3075 16.6234 
11.2389 -4.97772 19.4853 14.022 -15.4073 15.7773 11.6771 -3.51962 21.1512 
11.4825 -8.18297 18.1608 11.2571 -6.75527 18.4171 11.7077 -9.57504 18.0296 
11.9592 -10.8248 17.6952 12.0935 -2.44424 22.4383 11.241 -5.38719 19.2702 
13.6761 -14.6162 16.6403 12.3393 -12.1543 17.2775 13.0031 -13.5633 17.0818 
11.5531 -3.93536 20.7623 13.8922 -14.9329 16.5257 12.3637 -0.975143 23.5435 
11.421 -7.213 18.527 11.6386 -8.65977 18.3641 11.2948 -5.806 19.1293 
11.8641 -9.96796 18.1591 12.1482 -11.2124 17.7918 12.6224 -12.6176 17.4643 
11.4722 -4.35607 20.3996 13.3416 -13.9754 17.2012 11.9937 -2.90988 22.1625 
14.052 -15.2691 16.3994 11.587 -7.70572 18.7021 11.4043 -6.25371 19.0804 
11.7871 -9.09528 18.532 13.6308 -14.3479 17.2007 12.0327 -10.3449 18.2758 
11.4464 -4.79409 20.1002 12.3373 -1.57795 23.3666 12.3723 -11.635 17.9218 
12.9609 -13.1366 17.6503 11.8559 -3.41806 21.7166 13.8638 -14.7111 17.0959 
12.5653 -0.142047 24.3034 11.5562 -6.73954 19.1387 11.7353 -8.18885 18.8809 
11.4774 -5.26622 19.8749 11.9419 -9.49608 18.6744 11.7527 -3.88286 21.2837 
12.2248 -10.7345 18.4019 13.2991 -13.6324 17.7469 12.648 -12.1456 18.0776 
12.2482 -2.22456 23.0288 14.0415 -15.0913 16.9611 11.5709 -5.76128 19.7628 
11.7132 -7.25474 19.2739 11.6949 -4.35456 20.8902 11.876 -8.63241 19.0342 
13.5915 -14.0719 17.7256 12.115 -9.88714 18.8126 12.1285 -2.89644 22.5598 
12.4552 -11.1845 18.5445 12.5154 -0.847601 24.0725 12.9678 -12.7259 18.2216 
13.8276 -14.4771 17.6192 11.7016 -4.83095 20.6098 11.7102 -6.28998 19.7674 
12.0188 -3.53913 22.0308 11.8529 -7.75585 19.423 12.8192 0.558635 25.0323 
12.0265 -9.04574 19.1715 12.3193 -10.3072 18.9624 13.2883 -13.2944 18.2801 
12.4356 -1.60659 23.6961 12.729 -11.7269 18.6938 14.012 -14.8904 17.4793 
12.3174 -2.52611 23.1236 11.9688 -4.05415 21.6262 11.7703 -5.34043 20.4453 
11.8585 -6.8426 19.8602 13.5684 -13.7929 18.2349 11.9849 -8.21287 19.5529 
12.2011 -9.46096 19.3126 12.5661 -10.7928 19.1329 13.0287 -12.3484 18.802 
12.7084 -0.30478 24.6738 13.7966 -14.2363 18.121 12.5482 -1.43744 24.0133 
12.2591 -3.22114 22.6869 11.9661 -4.53466 21.3237 11.8869 -5.89657 20.3978 
11.9921 -7.37308 19.9807 12.127 -8.64068 19.6704 13.3178 -12.9666 18.8185 
13.0831 1.26127 25.7177 12.4157 -9.91406 19.4786 12.8506 -11.3698 19.2995 
13.9795 -14.6786 17.9701 12.7649 -0.500021 24.7589 12.5011 -2.18462 23.6335 
12.2392 -3.80334 22.3197 12.0084 -5.0386 21.1209 13.5709 -13.513 18.7457 
12.0203 -6.48074 20.4478 12.117 -7.85028 20.0875 12.2966 -9.0734 19.7987 
13.1377 -12.016 19.3934 12.6822 -10.4405 19.6822 13.0141 0.609245 25.5105 
13.7811 -13.9913 18.6199 12.4833 -2.88446 23.2896 12.7218 -1.17704 24.4541 
12.2431 -4.32584 22.016 12.092 -5.59316 21.0266 12.1472 -7.03965 20.5411 
12.25 -8.2905 20.1827 13.3921 -12.6568 19.3754 12.5134 -9.55049 19.9659 
12.9867 -11.0579 19.8872 13.3653 2.09516 26.41 13.9543 -14.4637 18.4468 
12.9661 -0.0890968 25.2699 12.4881 -3.54158 22.9699 12.7011 -1.8541 24.1444 
12.2696 -4.83943 21.7897 13.6087 -13.2337 19.274 12.2006 -6.18209 21.0353 
12.2683 -7.53705 20.6303 12.4102 -8.73242 20.2898 13.2726 -11.7245 19.9953 
12.7932 -10.1107 20.1938 13.2336 1.19256 26.0534 13.7905 -13.7403 19.1345 
12.9273 -0.814268 24.968 12.6999 -2.55477 23.8452 12.5064 -4.13814 22.6836 
12.3226 -5.38148 21.6604 12.3168 -6.75025 21.103 12.3953 -7.98873 20.7085 
13.5013 -12.3684 19.9602 12.6201 -9.21984 20.4435 13.116 -10.7649 20.4442 
13.9439 -14.249 18.9192 13.6124 2.92129 26.9779 13.1575 0.3462 25.7382 
12.9131 -1.5208 24.6661 12.717 -3.26696 23.5651 13.6824 -12.9546 19.8344 
12.5319 -4.68917 22.4539 12.4025 -5.9498 21.6342 12.4354 -7.25836 21.1797 
12.5459 -8.4344 20.7957 13.4067 -11.4513 20.5935 12.8999 -9.7956 20.6743 
13.4376 1.81385 26.5484 13.8314 -13.4776 19.6833 13.1253 -0.449937 25.4467 
12.9165 -2.24447 24.3752 12.7467 -3.93925 23.3125 12.5684 -5.229 22.3078 
12.5042 -6.50184 21.6787 12.56 -7.71728 21.2476 13.6211 -12.0918 20.5698 
12.7429 -8.92056 20.9257 13.2289 -10.469 20.9548 13.9525 -14.0355 19.3904 
13.8105 3.72846 27.3964 13.3281 0.832615 26.1585 13.1226 -1.20553 25.1669 
12.9343 -2.9946 24.1122 12.7805 -4.5443 23.1035 13.7769 -12.6714 20.4338 
12.6272 -5.76954 22.2599 12.6196 -7.00273 21.7445 12.7029 -8.16365 21.3186 
13.5211 -11.1685 21.1532 13.0075 -9.4911 21.1354 13.9785 -13.8208 19.8547 
13.3247 -10.1602 21.4136 12.8835 -8.64099 21.4221 12.7433 -7.45891 21.8056 
12.7154 -6.28941 22.2868 13.2965 -0.0564943 25.8657 13.1326 -1.96249 24.8876 
12.8171 -5.09696 22.9652 12.967 -3.72597 23.8893 13.6325 2.45703 27.0166 
13.7275 -11.8036 21.1743 13.8989 -13.1946 20.2808 13.1218 -9.19189 21.593 
13.6103 -10.8598 21.645 12.8802 -7.90065 21.8641 12.826 -6.76647 22.3426 
12.8699 -5.6171 22.9158 13.8675 -12.3615 21.0665 13.0088 -4.3827 23.7147 
13.1484 -2.74075 24.6282 13.3111 -0.877518 25.6214 13.4857 1.3585 26.5535 
13.9618 4.48888 27.7208 14.017 -13.5781 20.3499 13.4097 -9.83685 21.8355 
13.0436 -8.36561 21.9412 13.8111 -11.4885 21.7279 12.9482 -7.20679 22.3963 
12.9519 -6.1042 22.9378 13.0562 -4.95554 23.6069 13.1749 -3.5086 24.4187 
13.3379 -1.68031 25.3766 13.4392 0.372408 26.2284 13.9697 -12.8481 20.9436 
13.8136 3.14295 27.4487 13.2492 -8.89172 22.0658 13.678 -10.5213 22.0699 
13.0794 -7.63541 22.4433 13.0595 -6.55078 22.9897 13.1176 -5.46729 23.5793 
[...]
POINT_DATA 724
VECTORS velocity double
0.0937186 -0.0127819 -0.383381 0.129181 -0.0364869 -0.369321 -0.0268476 0.0889344 -0.337055 
0.0590441 0.0202315 -0.274676 -0.122125 0.159803 -0.313983 0.0111716 -0.000862326 -0.354158 
-0.0171963 0.0490881 -0.184565 -0.17184 0.173397 -0.329752 0.076706 -0.0829089 -0.371388 
-0.0799425 0.0770736 -0.316107 0.0624681 -0.081449 -0.327444 -0.0119682 -0.012405 -0.238378 
-0.0259714 -0.0108892 -0.167542 -0.141273 0.125312 -0.301152 -0.181127 0.13898 -0.37148 
-0.00451748 -0.0577398 -0.321081 -0.0824757 0.0195887 -0.166027 0.045338 -0.145414 -0.315458 
-0.162614 0.12104 -0.312406 -0.086667 0.0221708 -0.269871 0.0181815 -0.125951 -0.210674 
-0.169387 0.0849422 -0.416934 0.000862039 -0.109159 -0.236393 -0.099187 -0.0145346 -0.14949 
-0.152891 0.0787781 -0.350626 -0.129376 0.0601268 -0.242428 -0.0162312 -0.114817 -0.248573 
-0.096138 -0.0177382 -0.119596 0.0833945 -0.246225 -0.283439 0.0291753 -0.204804 -0.22652 
-0.159974 0.0529217 -0.43617 -0.125941 0.0406329 -0.258084 -0.0761423 -0.0475066 -0.175363 
-0.056675 -0.116274 -0.191718 -0.117581 0.0127511 -0.3473 0.000596956 -0.180709 -0.142473 
-0.143685 0.00772529 -0.0745508 -0.0104642 -0.181046 -0.129321 -0.0917107 -0.0231502 -0.141542 
-0.158045 0.0518829 -0.422737 0.148403 -0.344639 -0.360684 0.0218257 -0.237922 -0.266369 
-0.0829063 -0.0619523 -0.0168143 -0.106015 -0.0138611 -0.372997 0.0369274 -0.274138 -0.0886686 
-0.0768864 -0.0384562 -0.204722 -0.0412992 -0.129127 -0.0379784 -0.0955108 -0.090519 -0.128458 
0.0335414 -0.263376 -0.00296874 -0.0594385 -0.0689136 -0.274967 -0.041014 -0.100629 -0.0424784 
0.0218487 -0.25712 0.0300355 -0.147066 0.0309433 0.0435809 0.194471 -0.400358 -0.413143 
-0.108347 -0.00115038 -0.359725 -0.171435 0.107984 -0.376294 0.0439429 -0.27325 -0.274269 
0.0769245 -0.351482 0.0802896 -0.0291583 -0.12382 0.117246 -0.0228271 -0.113858 -0.136605 
0.00509035 -0.195793 0.085068 -0.101625 -0.0515907 -0.0389931 -0.0581542 -0.0689992 -0.301871 
0.126668 -0.34742 -0.333521 0.0966434 -0.349209 0.148401 0.0686608 -0.316139 0.154271 
-0.00110506 -0.147296 0.00729949 -0.110666 0.0455032 0.179558 -0.0153565 -0.125702 -0.221616 
-0.114042 0.0455781 -0.31224 -0.20381 0.228063 -0.329458 0.231989 -0.425793 -0.438394 
-0.00804572 -0.165216 -0.124283 0.132334 -0.410153 0.189536 0.0551205 -0.205493 0.23195 
0.0272593 -0.203337 0.102147 0.00971696 -0.155908 -0.120183 -0.0527959 -0.0517867 -0.263001 
-0.0975421 0.0468399 0.141387 0.0796638 -0.237598 -0.173257 -0.230048 0.354321 -0.290712 
-0.13885 0.144066 -0.276766 0.173332 -0.341429 -0.30032 0.167121 -0.419354 0.219641 
0.0851474 -0.30425 0.137601 0.00674769 -0.145318 -0.0316907 -0.00276094 -0.132532 -0.20221 
-0.0235193 -6.16527e-05 0.285253 0.25699 -0.40722 -0.405981 -0.0102103 -0.0446796 0.0675216 
-0.066361 0.00900508 -0.234515 0.154216 -0.403376 0.144622 0.0190375 -0.166611 -0.136534 
0.0026639 -0.138075 0.00389728 0.14858 -0.311287 0.251176 -0.0529531 0.0880834 0.259141 
-0.188321 0.309768 -0.255907 0.104721 -0.167439 -0.0411755 -0.19658 0.362772 -0.200197 
-0.0108885 -0.097795 -0.189319 0.195591 -0.268997 -0.166589 -0.00317588 -0.126407 -0.0991617 
0.0402961 -0.200133 0.000923259 0.200306 -0.4413 0.145105 -0.14009 0.206987 -0.241457 
0.0718317 -0.108675 0.2677 0.275757 -0.350721 -0.307478 0.0222864 0.00196555 0.16506 
0.0110131 -0.146543 -0.151718 -0.0836376 0.0860485 -0.215551 -0.042154 -0.0545816 -0.111786 
0.105668 -0.300348 -0.00880923 0.199776 -0.386663 0.146995 -0.00455187 0.0494635 0.239578 
0.133224 -0.117499 0.0724427 -0.157482 0.310646 -0.182208 -0.145042 0.30003 -0.0663701 
-0.0331118 -0.027104 -0.185107 0.220207 -0.201769 -0.0150585 -0.0181637 -0.102704 -0.148078 
-0.0404886 -0.0513698 -0.137745 0.162276 -0.375389 -0.0129822 -0.135813 0.258221 -0.201984 
0.29879 -0.28653 -0.172802 0.134919 -0.225246 0.149736 0.0384273 -0.000199478 0.171 
-0.116035 0.277825 -0.042798 -0.011127 -0.0896656 -0.165146 -0.0979595 0.165802 -0.197525 
-0.0762743 0.00243052 -0.18116 0.00401515 -0.121845 -0.147842 0.18589 -0.386458 -0.00849604 
0.138316 -0.111241 0.113063 0.039397 -0.0469504 0.133323 -0.106409 0.252824 -0.0909199 
0.272917 -0.219514 0.0169108 -0.133501 0.439437 0.0655404 -0.0596142 0.0695352 -0.181979 
-0.0349731 -0.0660019 -0.173232 -0.106817 0.0658718 -0.208238 0.0612653 -0.211945 -0.142119 
0.0255546 -0.0264095 0.0993499 -0.100347 0.235276 -0.134392 0.1559 -0.306355 -0.000955873 
0.211317 -0.18637 0.0792698 0.336979 -0.256186 -0.0361965 -0.106248 0.392426 0.049634 
-0.0379373 -0.00192855 -0.172081 -0.0917611 0.0313459 -0.203105 -0.0833375 0.193363 -0.147628 
-0.0933325 0.0507284 -0.207307 0.0848159 -0.107101 0.0704312 0.104629 -0.274426 -0.127799 
0.0764503 -0.15992 0.00198352 -0.0797455 0.257072 -0.0110303 0.286807 -0.257276 0.053039 
-0.0891531 0.470409 0.246759 -0.0512413 -0.00882905 -0.181212 -0.0623232 0.133918 -0.150792 
-0.135202 0.117559 -0.21716 0.161884 -0.195396 0.0554717 -0.0551299 -0.00921755 -0.187437 
0.112804 -0.274061 -0.108959 0.0161427 -0.0672928 0.00310019 -0.0613115 0.211271 -0.0377165 
0.3712 -0.29679 0.0226261 -0.0880375 0.42751 0.0812954 -0.0642368 0.45761 0.221667 
-0.0482246 0.0757214 -0.154205 -0.0951455 0.0533881 -0.202092 -0.143802 0.144228 -0.20054 
-0.0464184 0.176888 -0.0588309 -0.0130543 -0.074856 -0.158715 0.0276971 -0.0823764 0.0186795 
0.0738724 -0.195512 -0.0847285 0.210575 -0.254038 0.0463883 -0.0697155 0.356738 0.0529397 
0.299959 -0.315639 0.0440258 0.00737523 0.320716 0.399397 -0.0569789 0.0529179 -0.169135 
-0.135383 0.124635 -0.203919 -0.033425 0.139644 -0.0762432 -0.127171 0.125798 -0.164469 
0.0149515 -0.112143 -0.124017 0.0118559 -0.0812892 -0.0431953 0.0729401 -0.13673 0.039078 
-0.0470163 0.278712 0.0363979 0.380558 -0.36417 0.0373614 -0.0521883 0.451977 0.17977 
-0.0901699 0.0804138 -0.191015 -0.026961 0.101921 -0.0947719 -0.150673 0.158634 -0.175068 
-0.0991659 0.089213 -0.119166 0.0256085 0.351969 0.341399 -0.0228681 0.206864 0.0237797 
0.153441 -0.221605 0.0571431 0.0146572 -0.0932322 -0.0796686 -0.012826 -0.0242359 0.0188783 
-0.0531677 0.442053 0.12135 0.247803 -0.307233 0.0593108 -0.0980148 0.237044 0.133949 
-0.0384322 0.0832147 -0.124071 -0.123775 0.121658 -0.193717 -0.00222772 0.147047 0.00906289 
-0.144081 0.157368 -0.126204 -0.0707314 0.0580504 -0.068672 -0.0151823 -0.0124846 -0.0164701 
-0.0427105 0.393262 0.0849619 0.0218747 -0.0555185 0.0828034 0.022608 0.372495 0.277956 
0.348502 -0.383065 0.0567156 -0.0708186 0.0968498 -0.161908 0.007844 0.101956 -0.0142519 
-0.138845 0.139897 -0.164967 0.0937796 -0.139966 0.116594 -0.124312 0.138213 -0.0684534 
-0.0215666 0.312589 0.0670209 -0.00287521 0.283557 0.218355 -0.0535574 0.059024 -0.0145433 
-0.0358191 0.0590636 0.0711625 0.00131657 0.394118 0.198833 0.184832 -0.241421 0.118596 
-0.264141 0.335683 -0.293143 -0.00333902 0.0818181 -0.0552058 -0.105089 0.118506 -0.18316 
0.00518423 0.218233 0.0572951 -0.134679 0.131686 -0.113302 -0.0120096 0.397254 0.133172 
-0.0993051 0.120325 -0.0104553 -0.00848041 0.0404232 0.157316 -0.05284 0.105399 0.0438124 
0.0586024 0.317111 0.272231 0.29039 -0.341825 0.108721 0.0251686 0.137398 0.0413285 
-0.0391093 0.0915974 -0.113495 -0.010198 0.361977 0.0905195 -0.123281 0.120505 -0.171264 
0.0541453 -0.0457555 0.205314 -0.116597 0.10847 -0.0513117 0.0656037 0.325102 0.250825 
-0.0774678 0.127164 0.0371379 -0.137335 0.295627 -0.0910334 -0.0521653 0.154204 0.119483 
0.133753 -0.153386 0.210867 0.00498631 0.288061 0.0691572 0.0215728 0.0906835 0.00149678 
0.0411917 0.324692 0.173617 -0.080778 0.107431 -0.162175 -0.29244 0.490742 -0.447536 
-0.122691 0.0992255 -0.131149 -0.0909272 0.0889128 0.00662751 -0.0206999 0.125642 0.213051 
0.00380679 0.297088 0.112889 -0.0662252 0.174442 0.0676275 0.230093 -0.26604 0.193127 
0.0900255 0.296396 0.225681 0.0240791 0.312671 0.109093 0.0217255 0.198669 0.0525535 
-0.0134871 0.0844099 -0.0667885 0.0360433 0.0341393 0.283099 -0.107815 0.103514 -0.177764 
-0.106451 0.0637949 -0.0748981 -0.0670538 0.10207 0.0381424 -0.0543691 0.216543 0.112498 
-0.220541 0.369047 -0.307896 0.103458 -0.074178 0.306603 -0.0224724 0.300951 0.0168025 
0.0925886 0.256399 0.196387 0.0179854 0.276484 0.0672041 0.0212783 0.127146 0.0186275 
-0.0616207 0.0927897 -0.135882 -0.115279 0.0763588 -0.16042 -0.0189772 0.179252 0.208064 
-0.20264 0.557957 -0.273779 -0.0795028 0.0338391 -0.0214366 -0.0538413 0.165414 0.0319343 
0.184341 -0.187904 0.292105 -0.174316 0.355257 -0.248956 0.0824632 0.28474 0.149752 
0.0726356 0.217527 0.132782 0.0162956 0.217381 0.037368 0.0349109 0.0821558 0.310871 
-0.0103174 0.0960376 -0.0449557 -0.0979981 0.0865706 -0.175927 -0.104665 0.0342694 -0.120091 
-0.0408625 0.220222 0.0429122 -0.0518216 0.0463368 -0.00323317 -0.200821 0.484361 -0.299359 
0.0934765 -0.0250137 0.37112 0.122019 0.22266 0.186721 -0.059076 0.309384 -0.0798328 
0.0477848 0.190175 0.0733732 0.00535813 0.155793 0.00259788 -0.0596898 0.088545 -0.117257 
-0.114528 0.0600865 -0.182344 -0.00712401 0.188176 0.135052 -0.0789732 -0.0022427 -0.0750553 
-0.0346665 0.121504 -0.0345195 -0.08975 0.483929 0.0233554 0.159107 -0.132442 0.379386 
-0.161153 0.389997 -0.229162 0.117101 0.135859 0.162758 0.0523432 0.280483 0.0630956 
0.0223505 0.164085 0.0260589 0.0439591 0.0912139 0.269586 -0.027743 0.116708 -0.0503778 
-0.100837 0.075575 -0.16795 -0.111384 0.0205984 -0.162193 -0.0206225 0.183358 -0.0445929 
-0.0464274 0.0105274 -0.0596761 -0.117111 0.486451 -0.123683 0.0977574 -0.0150917 0.377359 
-0.0796894 0.317656 -0.100203 0.122456 0.21689 0.150936 0.0862872 0.077708 0.109389 
-0.00807684 0.136952 -0.0161472 -0.0754302 0.0965632 -0.111078 -0.123016 0.0496583 -0.189241 
0.00855257 0.157409 0.0342321 -0.0892231 -0.0118592 -0.128888 -0.0201522 0.0928048 -0.087115 
0.151904 -0.112579 0.430369 -0.0293187 0.383336 0.204688 -0.107345 0.404092 -0.120392 
0.0238907 0.274823 0.0352293 0.140532 0.0996077 0.18345 0.0545842 0.0665021 0.176291 
0.043 0.058985 0.0513813 -0.0495919 0.116377 -0.0618173 -0.116283 0.0754903 -0.157414 
-0.125173 0.0171245 -0.185385 -0.00123205 0.146973 -0.0880853 -0.0518367 0.0078295 -0.108549 
-0.0481372 0.422184 0.0379739 0.106109 -0.039911 0.318717 -0.0532384 0.314197 -0.0140264 
0.107061 0.219488 0.136912 0.117839 -0.00910747 0.168512 -0.00594938 0.062174 -0.00092577 
-0.0965175 0.100648 -0.107726 -0.13941 0.0484571 -0.181854 0.0222949 0.112719 -0.0235731 
-0.105997 -0.00377717 -0.164058 -0.0119571 0.0958231 -0.107852 0.154813 -0.127024 0.431946 
-0.036012 0.402864 0.17655 -0.0533516 0.399513 -0.0165998 0.0284943 0.257532 0.112047 
0.140992 0.105332 0.198483 0.0706863 -0.0540806 0.122323 0.0590503 0.025869 0.0900398 
-0.057454 0.0716629 -0.046902 -0.134243 0.0806679 -0.143283 -0.142888 0.0222933 -0.186591 
0.0159681 0.137316 -0.0704636 -0.0643815 0.0262702 -0.139237 0.157098 -0.160268 0.389967 
-0.0102795 0.116124 -0.109647 -0.124334 0.0129611 -0.175154 -0.154864 0.0567695 -0.164792 
-0.104605 0.0772391 -0.0862898 -0.0100289 0.306304 0.0871982 0.100798 0.213954 0.19716 
0.0138172 -0.0453942 0.0666704 0.128893 -0.035993 0.221402 -0.00236026 0.334348 0.149016 
0.0341706 0.0847801 0.00152131 0.106032 -0.0805046 0.226014 -0.0797108 0.0494174 -0.15193 
0.0298391 0.149989 -0.0327003 -0.156746 0.0369678 -0.173571 -0.13826 0.0743737 -0.117674 
-0.0416505 -0.0149894 0.0147493 0.056767 -0.00501167 0.0777562 0.0887632 -0.121341 0.202507 
0.131354 0.130145 0.238177 0.0607629 0.232948 0.238843 -0.0116698 0.364007 0.0595299 
-0.103726 0.482075 -0.0592002 0.149424 -0.194804 0.321035 -0.0154737 0.133298 -0.109633 
-0.137452 0.0347628 -0.170756 0.0471166 0.0842251 0.0703286 -0.154866 0.0660128 -0.141375 
-0.0865788 0.0161606 -0.0310356 0.0372266 -0.132746 0.155349 0.119339 -0.00322782 0.256842 
0.117298 0.196496 0.326882 0.0240549 0.29808 0.143532 0.0891991 -0.105451 0.164688 
0.010137 0.316791 0.16709 -0.0924185 0.0692594 -0.155337 0.0371452 0.165761 -0.0148508 
-0.154477 0.0589439 -0.157932 -0.115079 0.041258 -0.0725512 -0.0121389 -0.101612 0.0978098 
0.085408 -0.110991 0.247721 0.0574328 -0.01217 0.147705 0.128504 0.155504 0.323736 
0.0959396 0.211152 0.332566 0.0204898 0.295299 0.116989 -0.210365 0.538272 -0.42151 
0.125696 -0.214169 0.257971 -0.0253371 0.138102 -0.116292 -0.135669 0.0626599 -0.166394 
0.0593555 0.0994906 0.116048 -0.127213 0.0610295 -0.110901 -0.0491715 -0.0555327 0.0375611 
0.0445288 -0.147341 0.204951 0.101151 0.0669348 0.288998 0.148903 0.172286 0.460471 
0.0439637 0.281269 0.154886 0.0726925 -0.110419 0.203785 -0.0235519 0.397609 0.0421089 
-0.0948307 0.0886359 -0.162546 0.0360309 0.169568 -0.025572 -0.125198 0.0775929 -0.144614 
-0.0697256 -0.006963 -0.0233896 0.00720607 -0.128291 0.139106 0.064984 -0.00170048 0.224392 
0.0633601 -0.0317366 0.250591 0.117336 0.195328 0.359308 0.142632 0.168242 0.441332 
0.0385038 0.243854 0.143405 0.0945556 -0.209999 0.259987 -0.287682 0.52359 -0.712385 
-0.0335452 0.134705 -0.133744 -0.109361 0.0938438 -0.170048 0.066728 0.112874 0.113965 
-0.0758453 0.0393555 -0.0817752 -0.0180663 -0.0815145 0.0609208 0.0290695 -0.0790611 0.191703 
0.089849 0.142021 0.334966 0.0561699 0.241356 0.145982 0.177073 0.14885 0.533981 
0.0682683 -0.0999873 0.292983 -0.117508 0.490986 -0.25488 -0.0777489 0.113479 -0.180258 
0.0287599 0.157735 -0.0568643 -0.0712825 0.0803968 -0.133015 -0.0281228 -0.0256746 -0.0184981 
0.00241426 -0.0708679 0.107381 0.0740715 0.0136764 0.251038 0.0352925 0.083158 0.23324 
0.168484 0.164003 0.539224 0.115224 0.186274 0.303722 0.027515 0.292829 0.0943648 
0.0745399 -0.190672 0.335308 -0.0304889 0.134701 -0.162382 -0.05824 0.113393 -0.172328 
-0.23366 0.428685 -0.636718 0.0670614 0.113686 0.0736205 -0.0254069 0.0280506 -0.0862236 
-0.0118196 -0.0313646 0.00845656 -0.00146506 0.045308 0.136037 0.0947567 0.194644 0.390585 
0.188395 0.129222 0.525391 0.0607833 0.186129 0.127999 0.0729858 -0.0838535 0.351881 
-0.133174 0.485502 -0.334823 0.022072 0.138302 -0.0995621 -0.0370329 0.134985 -0.192884 
-0.0145467 0.0734666 -0.133661 -0.011116 0.0146937 -0.0829208 0.0796594 0.0238513 0.222077 
-0.0224269 0.0489323 0.026043 0.0159192 0.193588 0.218608 0.191322 0.149583 0.57475 
0.0989443 0.165597 0.205905 0.0705904 -0.168131 0.414616 -0.00776818 0.140168 -0.18403 
0.0309569 0.295689 0.0497017 0.0613467 0.0990667 0.013581 0.000330977 0.106944 -0.15889 
0.00217193 0.0505556 -0.141239 -0.121403 0.382335 -0.367232 -0.0278321 0.073971 -0.0872303 
0.179862 0.11072 0.447415 -0.0318467 0.182666 0.0726874 0.111051 0.215814 0.420224 
0.0790994 -0.0702377 0.348024 0.0258714 0.12187 -0.134458 -0.181026 0.43229 -0.471802 
0.0163305 0.124946 -0.163505 0.0866637 0.125801 0.131806 0.0222142 0.0698882 -0.153249 
0.0789552 0.0217626 0.155649 -0.0167477 0.0918336 -0.173688 0.201122 0.129867 0.545604 
-0.0515053 0.183587 -0.0572733 0.01474 0.264032 0.205558 0.0739902 -0.149767 0.436784 
-0.0132529 0.401529 -0.0846644 0.031719 0.122469 -0.147779 0.0550656 0.0750723 -0.0417423 
0.0427118 0.0738634 -0.124797 0.159262 0.0864259 0.333777 0.00676764 0.0861939 -0.202804 
0.125207 0.214325 0.391727 -0.0490144 0.181067 -0.162192 -0.0435377 0.278663 0.0280657 
-0.0327825 0.43372 -0.149312 0.0809404 -0.064713 0.287699 0.0775631 0.130882 0.0859613 
0.0453543 0.0948342 -0.108732 0.0588887 0.065833 -0.0738495 -0.143371 0.330892 -0.379121 
0.196807 0.102624 0.472301 0.0339588 0.0590165 -0.166357 0.0717834 0.00496111 0.0808681 
-0.0283872 0.153918 -0.217894 0.0282677 0.280491 0.16523 -0.0621561 0.267514 -0.0974558 
0.0757441 -0.138555 0.387921 -0.0629445 0.430575 -0.211598 0.0559731 0.0429717 -0.0435517 
0.136307 0.0504296 0.21427 0.0680104 0.0474773 -0.0187135 0.0570904 0.0204548 -0.081021 
0.00142234 0.101218 -0.212723 0.130256 0.195598 0.315333 -0.0532065 0.227294 -0.167162 
-0.0290373 0.293419 -0.00680048 0.0248219 0.53108 -0.0149573 0.0745151 -0.0725419 0.198377 
0.0540797 0.242045 0.0219388 0.0692935 0.0179835 0.0302311 0.072179 -0.0207114 0.024891 
0.0619576 -0.0242477 0.0453973 0.180566 0.0593381 0.368694 -0.0754889 0.271014 -0.208015 
0.0295765 0.0372581 -0.154982 -0.0283879 0.161068 -0.181701 0.0434091 0.257206 0.0857457 
-0.0447481 0.258065 -0.0998108 -0.0858991 0.362148 -0.245671 0.0688513 -0.137556 0.287641 
0.109534 0.0294638 0.0984215 0.0638956 -0.0230012 0.0716973 0.0779645 -0.0595053 0.124889 
0.0496361 -0.0266529 -0.0589681 0.000474377 0.0848911 -0.157185 0.131721 0.145971 0.244621 
-0.0348391 0.190489 -0.125335 -0.00821048 0.252294 -0.0669717 0.0625249 0.61994 0.0657555 
0.0583134 -0.096475 0.135978 0.0196533 0.370894 -0.0569863 0.0547653 -0.0719387 0.109991 
0.0602125 -0.0857527 0.0582794 0.074314 -0.0947792 0.201974 0.0245612 0.0139374 -0.111281 
0.148867 -0.00521196 0.212967 -0.013443 0.109137 -0.105775 -0.0224304 0.196879 -0.121339 
0.0533745 0.209157 0.0211152 -0.0180694 0.302194 -0.0698573 -0.0635015 0.2569 -0.165883 
0.0477352 -0.150856 0.199767 0.0677288 0.195486 0.0102005 0.0624367 -0.136915 0.175865 
0.0396193 -0.0485687 -0.0472758 0.00970227 0.0320679 -0.0666036 0.0616299 -0.125832 0.245113 
-0.0150779 0.116771 -0.10756 0.132774 0.0574273 0.209385 0.00464368 0.200396 -0.116124 
0.0864705 0.678676 0.113406 0.0426875 -0.135556 0.202081 -0.0280969 0.316381 -0.104128 
0.0450902 -0.10744 0.0409629 0.0282454 -0.0276031 -0.0297434 0.0577208 -0.177063 0.275 
0.00220373 0.0296873 -0.0559204 0.105069 -0.00131171 0.0515 -0.0106392 0.141799 -0.146747 
0.0704051 0.131187 0.0559119 -0.0028704 0.280769 -0.023471 0.0248183 -0.180821 0.236925 
0.0474138 -0.198082 0.33585 0.0385806 -0.0686497 -0.00209867 0.0358204 0.361747 -0.0178828 
0.0429654 -0.164773 0.151857 0.0221085 -0.0504415 0.00935681 -0.00563941 0.0599544 -0.110064 
0.0240317 0.143245 -0.0540708 0.120176 -0.0328276 0.118375 0.0988393 0.703917 0.137422 
0.0328563 -0.204527 0.337862 -0.0133832 0.182185 -0.026403 0.0396987 -0.105017 0.0329395 
0.0365592 -0.214819 0.272782 0.0386564 -0.107568 0.0639463 0.00966389 -0.0311318 -0.0378503 
0.00738666 0.102253 -0.074115 0.0659288 0.239074 0.000896265 0.0901509 0.0373132 0.11397 
0.0288589 0.377638 0.041665 0.0328606 -0.152807 0.102467 0.0468976 -0.129897 0.0874743 
0.0141012 -0.232884 0.363146 0.0177577 0.23002 0.0320037 0.029381 -0.121848 0.0499382 
0.00884364 0.0333733 -0.0411766 0.0526551 0.0918441 0.0785497 0.0244794 -0.244821 0.35318 
0.0839303 0.0289205 0.00239783 0.105376 0.709629 0.151236 0.0223926 0.281106 0.0458234 
0.0221228 -0.204693 0.199789 0.0450521 -0.126698 0.0814411 0.0480655 -0.196671 0.132821 
0.0200886 -0.0515343 0.0202612 0.0357634 0.0917035 0.0821868 0.0641222 0.328828 0.0701167 
0.0847503 -0.0178607 0.0473876 0.0355133 -0.130638 0.0811793 0.0055015 -0.260361 0.371923 
0.0593959 -0.232598 0.184568 0.0297316 0.131385 0.0922665 0.0367075 -0.146134 0.0984323 
0.0346488 0.0500944 0.113205 0.0634242 0.0433493 0.098311 0.00938802 -0.233948 0.259965 
0.0710519 0.25543 0.027396 0.107347 0.703476 0.157555 0.0220421 -0.155775 0.11276 
0.044734 0.38683 0.0852394 0.0592276 -0.218237 0.187413 0.054959 -0.240193 0.182084 
0.0498291 0.0930353 0.157322 0.0620882 0.0740792 -0.0166138 0.0416811 -0.018468 0.156621 
0.0710169 0.184694 0.171908 0.049592 -0.176791 0.155325 -0.00307407 -0.233219 0.254368 
0.0696722 -0.311222 0.253168 0.0965184 0.302104 0.152896 0.0505458 0.0386123 0.0221979 
0.0507168 0.0980434 0.223779 0.0527566 -0.108552 0.205103 0.0112594 -0.165206 0.132178 
0.0374179 0.242234 0.0954032 0.106551 0.688573 0.160879 0.0353656 -0.144293 0.122018 
0.0744043 -0.32929 0.285436 0.0813486 0.0990107 0.22581 0.0663617 0.218776 0.034286 
0.0396658 0.0843343 0.0982973 0.0655684 -0.213828 0.255679 0.0590753 0.064282 0.285868 
0.0658008 -0.282431 0.262107 0.00786627 -0.146325 0.118815 0.103656 0.668832 0.161805 
0.0468938 0.278852 0.115593 0.127164 0.234174 0.280352 0.0777923 -0.315899 0.306624 
0.0387829 0.125566 -0.0127111 0.0410104 0.124131 0.195386 0.0695801 -0.00652575 0.332968 
0.0379865 -0.161581 0.154932 0.094785 0.0641083 0.269218 0.0842073 -0.380183 0.342637 
0.0213713 0.11134 0.0151176 0.111674 0.280167 0.201523 0.0789359 -0.110834 0.359586 