# vtk DataFile Version 3.0
vtk output
ASCII
DATASET POLYDATA
POINTS 724 float
10.1566 -10.3621 11.147 10.372 -11.3978 11.0514 9.98265 -9.25398 11.3798 
10.6104 -12.3343 11.0474 9.87724 -8.2445 11.7275 10.1332 -9.70737 11.5887 
10.8615 -13.1567 11.1051 9.82363 -7.24664 12.1965 10.3103 -10.5819 11.5228 
10.0323 -8.82434 11.9004 10.508 -11.404 11.5185 10.72 -12.218 11.5064 
11.0857 -13.7882 11.208 9.96133 -7.94586 12.2646 9.82409 -6.26617 12.7594 
10.2183 -9.6475 11.9801 10.9244 -12.7925 11.6393 10.4116 -10.5406 11.9658 
9.93146 -7.04228 12.7323 10.1185 -8.68912 12.348 11.296 -14.2968 11.3566 
9.88815 -5.29843 13.3933 10.6481 -11.4935 11.9771 11.146 -13.3968 11.7443 
9.93771 -6.07653 13.2632 10.0609 -7.73215 12.7911 10.2876 -9.48162 12.4052 
10.9007 -12.2839 12.1164 11.4951 -14.7056 11.5546 10.4697 -10.3295 12.4087 
9.9935 -4.55167 13.9497 10.0386 -6.68904 13.3223 10.2059 -8.48316 12.8367 
11.3613 -13.8992 11.8912 10.0292 -5.47819 13.8223 10.6779 -11.1357 12.4772 
11.1623 -13.0096 12.2575 10.3597 -9.25126 12.8742 10.1623 -7.44307 13.3392 
10.1418 -3.87022 14.5499 11.6912 -15.0405 11.8126 11.5731 -14.351 12.0581 
10.9206 -11.9183 12.6195 10.1154 -4.65049 14.3461 10.5239 -10.013 12.9091 
10.1353 -6.26269 13.866 10.3026 -8.21893 13.3658 11.4306 -13.6675 12.4012 
10.7185 -10.7669 13.0023 10.1717 -5.26542 14.3745 10.267 -7.09817 13.8929 
10.449 -8.97137 13.4029 11.1974 -12.7203 12.76 11.8573 -15.2702 12.0836 
10.2484 -3.92673 14.9155 10.316 -3.2541 15.1981 11.717 -14.426 12.4145 
10.6054 -9.69671 13.4575 10.9569 -11.5657 13.1401 10.2654 -5.9825 14.4178 
10.4144 -7.92224 13.93 11.5039 -13.5433 12.8399 10.2718 -4.37679 14.9352 
11.9168 -14.8168 12.5968 10.7896 -10.4217 13.5569 10.5648 -8.69043 13.9796 
10.3942 -6.80091 14.462 11.248 -12.4645 13.2608 10.3155 -4.92969 14.9499 
10.3992 -3.44193 15.4982 10.4782 -2.74076 15.8177 12.0406 -15.4641 12.4392 
11.7411 -14.0653 12.9612 10.7198 -9.4019 14.0478 11.0179 -11.2251 13.6783 
10.5468 -7.64164 14.52 10.3966 -5.62378 14.9774 10.4128 -3.91024 15.5059 
11.5362 -13.2083 13.4073 11.9548 -14.4686 13.1253 10.6287 -2.28109 16.4305 
10.5396 -3.03711 16.0582 12.1185 -15.0112 12.9974 10.8935 -10.1033 14.1406 
10.7034 -8.42232 14.589 10.5229 -6.45101 15.0311 10.4446 -4.4984 15.4931 
11.2885 -12.0596 13.8275 12.2241 -15.5955 12.8548 11.812 -13.8115 13.564 
10.5409 -3.57025 16.0258 10.8587 -9.12548 14.6657 10.5194 -5.21484 15.5093 
10.682 -7.32766 15.1113 11.1009 -10.8358 14.2633 11.5948 -12.8827 13.9914 
10.6901 -2.42632 16.6894 12.0909 -14.4416 13.6044 10.8091 -1.75163 17.2048 
10.5702 -4.16679 16.0013 12.285 -15.0193 13.4902 10.646 -6.07097 15.5733 
10.8476 -8.13528 15.2023 11.023 -9.78561 14.7578 10.6681 -2.85553 16.6005 
11.3588 -11.6604 14.4056 12.3931 -15.6628 13.2906 11.9279 -13.704 14.0875 
10.6446 -4.87632 16.0182 10.6646 -3.34207 16.5355 10.8117 -6.98082 15.6805 
11.0068 -8.83732 15.2917 11.213 -10.4768 14.8618 11.6835 -12.6198 14.5337 
12.2197 -14.3747 14.1063 10.8358 -2.0548 17.3318 10.9862 -1.24225 17.99 
10.6958 -3.90599 16.5029 12.4314 -14.9468 14.0214 10.7708 -5.71321 16.0985 
10.9861 -7.81491 15.797 11.1659 -9.48153 15.3764 10.792 -2.56636 17.1539 
12.5474 -15.6825 13.732 11.4525 -11.2966 14.9661 12.0223 -13.498 14.6273 
11.0244 -1.40129 18.1713 10.7727 -4.56443 16.5326 10.7819 -3.08028 17.0457 
10.9373 -6.61722 16.2276 11.151 -8.53067 15.8975 11.3409 -10.1473 15.4524 
12.3106 -14.1664 14.6651 11.7515 -12.224 15.083 10.9568 -1.86316 17.8984 
12.6024 -15.1397 14.3398 11.1968 -0.585954 18.9676 10.8185 -3.60491 17.0247 
10.897 -5.35754 16.6235 11.1154 -7.46194 16.3625 11.3087 -9.17413 15.9745 
12.0699 -13.0898 15.1971 10.9049 -2.3612 17.6731 11.552 -10.8897 15.5368 
12.5217 -14.5626 14.7822 12.7196 -15.6615 14.2776 11.191 -0.928427 18.9535 
10.8978 -4.22739 17.0598 11.0599 -6.23394 16.7614 10.9043 -2.79651 17.5954 
11.2845 -8.19119 16.4711 12.341 -13.703 15.3179 11.4726 -9.80257 16.041 
11.8137 -11.7228 15.6484 11.0728 -1.60582 18.4499 12.7369 -14.9883 14.9298 
11.3794 0.139054 19.9101 11.0218 -4.9844 17.1533 10.9417 -3.28259 17.5718 
11.2362 -7.0723 16.903 12.5788 -14.2078 15.4048 11.4433 -8.8313 16.5523 
11.6622 -10.4705 16.1179 12.1047 -12.5332 15.7947 11.036 -2.02958 18.2857 
12.8717 -15.6066 14.8127 11.2562 -0.874927 19.3016 11.4063 -0.0498046 20.0551 
11.0218 -3.87376 17.6019 11.1808 -5.83083 17.2895 11.4062 -7.80396 17.0183 
11.0326 -2.44785 18.1889 11.6041 -9.43609 16.6225 12.3936 -13.2567 15.9288 
11.8934 -11.2057 16.2297 12.7614 -14.5131 15.5728 11.2101 -1.27203 19.1113 
12.907 -15.0203 15.4476 11.5535 1.07065 20.926 11.1463 -4.6001 17.6908 
11.3527 -6.65196 17.4299 11.0661 -2.92027 18.1432 11.5683 -8.44482 17.1089 
11.784 -10.0573 16.7047 12.1678 -12.0131 16.3704 12.6348 -13.7597 16.0814 
11.1782 -1.66067 18.9447 13.0247 -15.5145 15.4092 11.4042 -0.336838 20.0764 
11.3042 -5.4201 17.8212 11.1444 -3.49426 18.1569 11.5215 -7.37895 17.5489 
11.7322 -9.04421 17.1919 11.5599 0.70421 20.9565 11.1707 -2.07141 18.8153 
12.8638 -14.3184 16.1158 12.0001 -10.7527 16.8109 12.4483 -12.7456 16.5341 
11.3613 -0.779831 19.8575 13.0291 -14.8481 16.0423 11.7324 1.99919 21.8453 
11.2713 -4.20411 18.2347 11.4728 -6.22252 17.9569 11.1977 -2.53851 18.736 
11.6864 -8.02393 17.6491 11.9132 -9.66031 17.2828 12.2552 -11.516 16.9542 
11.3287 -1.21206 19.6425 12.7236 -13.4656 16.6299 11.5372 0.260922 20.8414 
13.154 -15.399 15.9725 11.4326 -5.00905 18.3593 11.272 -3.10766 18.7212 
11.6389 -6.94228 18.0752 12.9559 -14.0948 16.6454 11.8566 -8.63604 17.7442 
11.3178 -1.65361 19.4647 11.7142 1.47999 21.7842 12.1254 -10.3367 17.398 
12.5404 -12.3646 17.0834 11.4985 -0.255141 20.5826 13.1326 -14.6743 16.5815 
11.9396 2.83403 22.6497 11.4006 -3.80646 18.7833 11.6023 -5.80221 18.4905 
11.3386 -2.14788 19.3368 11.8046 -7.59366 18.1791 11.4727 -0.749771 20.3239 
12.0449 -9.26546 17.8506 12.8133 -13.167 17.1561 12.3766 -11.1365 17.5236 
11.6681 0.897999 21.5717 13.2633 -15.2614 16.5045 11.4092 -2.72188 19.2917 
11.5681 -4.60507 18.9011 11.4648 -1.25726 20.0887 11.7668 -6.52006 18.6053 
13.0442 -13.8635 17.1528 11.9801 -8.22218 18.2829 11.6235 0.283146 21.2611 
12.2644 -9.9784 17.9712 11.8978 2.20843 22.5291 12.6508 -12.02 17.6318 
13.2234 -14.4854 17.0901 11.49 -1.77429 19.9341 11.5384 -3.41507 19.3345 
11.5994 -0.340844 20.9229 11.7434 -5.40047 19.0294 12.1352 3.57647 23.2953 
11.9315 -7.17728 18.7072 12.1782 -8.88831 18.3982 12.9114 -12.871 17.6799 
11.8159 1.4995 22.2307 12.5163 -10.8044 18.0979 13.3573 -15.1003 17.0109 
11.7339 0.662405 21.7756 11.6094 -0.880625 20.6845 11.5613 -2.35355 19.8668 
11.7124 -4.21178 19.4429 13.1327 -13.6147 17.6576 11.9096 -6.12414 19.1405 
12.1092 -7.82635 18.8098 12.4088 -9.64081 18.5338 12.7797 -11.7043 18.1945 
12.0857 2.8177 23.1372 13.3076 -14.2721 17.5897 11.92 1.71632 22.5888 
11.7249 0.0454448 21.4809 11.649 -1.41353 20.5245 11.6902 -3.04213 19.8898 
11.8964 -5.01608 19.569 12.0729 -6.79167 19.2358 13.0225 -12.5738 18.2208 
12.289 4.25793 23.7856 12.3136 -8.52274 18.9305 12.667 -10.4969 18.6756 
13.4408 -14.9138 17.5022 12.1367 2.6936 23.2706 11.8671 1.0414 22.2827 
11.7539 -0.504176 21.2622 11.7273 -2.00035 20.4439 13.2274 -13.3452 18.178 
11.8681 -3.83434 19.9855 12.0673 -5.75339 19.6773 12.2488 -7.45441 19.3321 
12.924 -11.4053 18.7747 12.5546 -9.31141 19.0827 12.3094 3.75248 23.799 
13.3922 -14.0298 18.0992 11.8642 0.447324 22.0296 12.0788 2.06749 23.0477 
11.8114 -1.05353 21.1051 11.8573 -2.68694 20.4496 12.0598 -4.64501 20.1067 
12.23 -6.43271 19.7669 13.1489 -12.2747 18.788 12.4541 -8.16994 19.4521 
12.8212 -10.1976 19.2476 12.4246 4.98228 24.2275 13.5189 -14.701 17.9895 
12.3041 3.17321 23.7175 11.9023 -0.11736 21.8232 12.0341 1.45504 22.7985 
11.9021 -1.65317 21.0178 13.334 -13.0555 18.7276 12.036 -3.47144 20.5309 
12.2369 -5.39612 20.2137 12.402 -7.10508 19.8551 13.0758 -11.1131 19.3608 
12.6996 -8.98476 19.6146 12.45 4.30365 24.2094 13.4835 -13.7555 18.6369 
12.263 2.52982 23.5202 12.0256 0.8595 22.5621 11.9749 -0.68867 21.6696 
12.037 -2.34241 21.012 12.232 -4.2808 20.6447 12.4008 -6.0892 20.3001 
13.2871 -11.9737 19.3747 12.6024 -7.83026 19.9685 12.9709 -9.8952 19.799 
13.5956 -14.4629 18.4816 12.5467 5.64036 24.6225 12.4517 3.63311 24.1034 
12.2224 1.89802 23.2902 12.0623 0.272647 22.3607 13.4537 -12.749 19.308 
12.081 -1.30536 21.5824 12.2153 -3.11841 21.0806 12.4148 -5.04183 20.7504 
12.5686 -6.77051 20.3819 13.2247 -10.8172 19.9327 12.8431 -8.65703 20.1291 
12.5707 4.83679 24.5742 13.5859 -13.4488 19.2143 12.4326 2.96613 23.9272 
12.2079 1.27634 23.0634 12.1426 -0.323035 22.212 12.2249 -2.00029 21.5728 
12.4117 -3.92016 21.1869 12.5814 -5.74853 20.8364 13.4276 -11.6671 19.961 
12.7596 -7.49911 20.4841 13.1105 -9.57814 20.3212 13.6729 -14.2038 18.978 
12.681 6.24208 25.0403 12.579 4.0881 24.4516 12.4089 2.31592 23.7227 
12.2381 0.659444 22.8677 12.2621 -0.957454 22.1305 13.5803 -12.4296 19.9049 
12.404 -2.76858 21.6357 12.5981 -4.68458 21.2913 12.7455 -6.43951 20.9136 
13.3602 -10.5011 20.4724 12.9861 -8.32238 20.6312 13.7492 -13.9331 19.4655 
13.2388 -9.23612 20.8157 12.9245 -7.16698 21.0042 12.7672 -5.40193 21.3788 
12.5985 -3.56001 21.7378 12.5792 3.38369 24.2855 12.4003 1.672 23.517 
12.4167 -1.65683 22.1266 12.3193 0.0363818 22.7265 12.69 5.35376 24.939 
13.557 -11.3373 20.5255 13.6987 -13.1156 19.8285 13.1304 -7.97456 21.1308 
13.4781 -10.1506 20.9758 12.9283 -6.10098 21.4544 12.785 -4.32318 21.8425 
12.5986 -2.41665 22.1929 13.7007 -12.0739 20.5001 12.4466 -0.614914 22.657 
12.4291 1.02846 23.3378 12.5787 2.71076 24.1038 12.6945 4.53684 24.7867 
12.8395 6.80866 25.5177 13.8287 -13.6334 19.9738 13.3592 -8.86415 21.2945 
13.0951 -6.8246 21.535 13.6686 -10.9713 21.0578 12.955 -5.04672 21.9329 
12.791 -3.19813 22.2982 12.6097 -1.31425 22.6672 12.5085 0.379345 23.2124 
12.5887 2.04682 23.9256 12.7061 3.78763 24.6171 13.8092 -12.7138 20.4689 
12.8245 5.86824 25.3412 13.2783 -7.61015 21.6401 13.5807 -9.75853 21.4522 
13.1134 -5.75051 22.0097 12.9753 -3.95826 22.4082 12.7953 -2.06391 22.7465 
[...]
POINT_DATA 724
VECTORS velocity double
0.918283 -1.09932 1.33284 1.07851 -0.774662 1.45426 0.803212 -1.66166 1.17137 
1.26457 -0.5904 1.48643 0.732557 -2.30398 1.05509 0.790468 -1.57416 1.09824 
1.43175 -0.397458 1.41012 0.692297 -2.97323 1.02051 0.882778 -1.23617 1.18713 
0.705458 -2.12571 0.949998 1.01619 -1.06098 1.24866 1.19782 -0.934204 1.27959 
1.53524 -0.170048 1.26181 0.657645 -2.70875 0.879716 0.701559 -3.65023 1.05924 
0.710953 -1.79801 0.913314 1.32479 -0.913079 1.19117 0.788887 -1.49098 0.967782 
0.643532 -3.30802 0.892523 0.627416 -2.40644 0.768426 1.58782 0.0714963 1.07549 
0.779917 -4.41757 1.08693 0.95106 -1.34334 1.02216 1.4592 -0.763692 1.07178 
0.687405 -3.94087 0.96959 0.596287 -3.04106 0.73605 0.620857 -2.07311 0.720819 
1.12592 -1.37143 0.967467 1.60323 0.293853 0.875377 0.672255 -1.77489 0.74642 
0.879838 -5.17305 1.04778 0.622585 -3.68063 0.820431 0.558408 -2.72274 0.616827 
1.54742 -0.560017 0.912107 0.738361 -4.4422 0.951238 0.777286 -1.67073 0.762226 
1.31484 -1.32155 0.863712 0.538992 -2.38271 0.556315 0.564054 -3.3782 0.661608 
0.97409 -6.03968 0.960398 1.594 0.486067 0.671501 1.59719 -0.284038 0.739175 
0.939151 -1.72759 0.732344 0.849444 -5.20162 0.937186 0.55518 -2.09545 0.5463 
0.639773 -4.02026 0.803727 0.517822 -3.05949 0.535743 1.4735 -1.08165 0.723566 
0.619417 -1.9599 0.547096 0.750102 -4.68836 0.857222 0.567369 -3.69054 0.657824 
0.485189 -2.72278 0.461359 1.16577 -1.74895 0.671767 1.57345 0.62016 0.506429 
0.944154 -6.06588 0.867842 1.0348 -6.92873 0.866638 1.59307 -0.401784 0.582639 
0.47593 -2.41651 0.42964 0.763498 -1.98892 0.544295 0.658344 -4.24838 0.764381 
0.515691 -3.38907 0.542669 1.40909 -1.44516 0.58628 0.86545 -5.54805 0.820339 
1.60054 -0.0350268 0.444933 0.507971 -2.21343 0.423382 0.474852 -3.05705 0.46897 
0.589838 -3.92904 0.678784 1.02395 -2.05198 0.536366 0.776527 -4.98754 0.769034 
0.979173 -6.72011 0.786643 1.06001 -7.64177 0.823191 1.54317 0.735321 0.348733 
1.52089 -1.05637 0.491612 0.448454 -2.7206 0.428745 0.62265 -2.15906 0.437403 
0.543339 -3.66705 0.613891 0.687512 -4.47017 0.722536 0.899125 -6.08849 0.733801 
1.26596 -1.91669 0.500119 1.56757 -0.650383 0.405514 1.07246 -8.16121 0.863252 
0.987237 -7.22076 0.743805 1.58016 0.0946669 0.327183 0.452636 -2.43477 0.41293 
0.502162 -3.35305 0.566431 0.620981 -4.11392 0.700169 0.806531 -5.36604 0.688104 
0.839872 -2.23389 0.464401 1.50949 0.818668 0.23591 1.43383 -1.52997 0.456607 
0.899894 -6.44725 0.669578 0.464272 -2.98756 0.527997 0.712807 -4.69588 0.663212 
0.581129 -3.87692 0.702198 0.516855 -2.26846 0.421935 1.11844 -2.18742 0.495722 
1.01977 -7.89559 0.819117 1.542 -0.796289 0.393883 1.10154 -8.53824 1.07725 
0.808918 -5.63192 0.615148 1.55659 0.0332092 0.303832 0.641622 -4.23685 0.68671 
0.542835 -3.58419 0.696459 0.443117 -2.63201 0.499258 0.949008 -7.3003 0.715094 
0.687633 -2.25697 0.466498 1.47714 0.872056 0.19009 1.379 -1.70411 0.503142 
0.716076 -4.85807 0.595282 0.871162 -6.57794 0.625446 0.603578 -3.98976 0.751445 
0.496855 -3.19949 0.667372 0.462701 -2.34121 0.486613 0.997507 -2.24566 0.550407 
1.5055 -0.913081 0.461559 1.0194 -8.0778 0.962488 1.18034 -8.66932 1.50177 
0.787435 -5.76751 0.559162 1.52533 -0.076711 0.372716 0.641218 -4.30097 0.640438 
0.567234 -3.71628 0.79136 0.454691 -2.78206 0.62384 0.924552 -7.42398 0.764912 
1.4447 0.90704 0.207976 0.577353 -2.19307 0.513893 1.28851 -1.83425 0.610666 
1.11699 -8.34744 1.44218 0.699112 -4.9686 0.533276 0.839776 -6.67766 0.626746 
0.597686 -4.00482 0.742459 0.515526 -3.32236 0.776423 0.437361 -2.38961 0.58163 
1.43311 -1.11597 0.603059 0.831233 -2.17208 0.610832 0.99518 -7.92724 1.11275 
1.47906 0.244491 0.403841 1.37423 -8.60446 2.27265 0.756936 -5.88916 0.535596 
0.619661 -4.32999 0.578414 0.558515 -3.73318 0.817058 0.459521 -2.86824 0.7256 
1.11515 -1.93518 0.720203 0.88858 -7.34226 0.848174 0.485127 -2.1106 0.574267 
1.45211 -0.529631 0.594361 1.39842 0.936498 0.295599 1.23033 -8.25306 1.97807 
0.667694 -5.06555 0.490429 0.564375 -3.95299 0.688579 0.803249 -6.7021 0.683816 
0.504155 -3.34474 0.820748 1.26896 -1.43382 0.772129 0.41769 -2.42378 0.666908 
0.64441 -1.99935 0.64258 1.00419 -7.80446 1.35116 1.41481 0.144521 0.56373 
1.60211 -8.33972 3.13104 0.58089 -4.34935 0.519413 0.718035 -5.96085 0.558713 
0.517271 -3.65697 0.779879 1.33272 -0.812921 0.76808 0.443549 -2.88832 0.777382 
0.415751 -2.0533 0.631027 0.871327 -1.8793 0.764703 0.881608 -7.30151 1.05794 
1.33767 0.956505 0.415475 1.21067 -7.9752 2.08763 1.49647 -8.08266 2.9646 
0.624743 -5.13711 0.481628 0.511951 -3.87778 0.617709 0.461743 -3.27991 0.802276 
0.781509 -6.71739 0.833255 0.390732 -2.42762 0.719089 1.0621 -1.51578 0.853451 
0.48863 -1.82318 0.65591 1.31123 -0.329346 0.758695 1.04778 -7.62442 1.70604 
1.31057 0.340093 0.651911 1.7438 -7.79889 3.99877 0.529886 -4.36712 0.482109 
0.454128 -3.53322 0.708548 0.684698 -6.01386 0.651019 0.402487 -2.83833 0.775899 
0.361999 -2.01052 0.673417 0.652608 -1.69925 0.75404 1.13205 -1.01674 0.870675 
0.910502 -7.2079 1.37298 1.24199 0.967502 0.536754 1.34667 -7.7956 2.67308 
0.449551 -3.81208 0.557816 0.58079 -5.19827 0.521809 0.395823 -3.1552 0.742344 
0.348878 -2.38121 0.732028 1.59114 -7.69063 3.64232 0.789362 -6.69047 1.07906 
1.17022 -0.355736 0.820116 0.384717 -1.6939 0.672147 0.819747 -1.47332 0.849108 
1.16619 -7.50886 2.2221 1.17252 0.304069 0.724731 1.81859 -7.28799 4.67281 
0.474952 -4.39095 0.478373 0.382199 -3.4093 0.637007 0.672135 -6.0371 0.823155 
0.339046 -2.72714 0.733624 0.312755 -1.9467 0.696693 0.481326 -1.51508 0.737496 
1.00164 -7.14585 1.80269 0.947579 -1.0028 0.871373 1.42828 -7.54282 3.20517 
1.11914 0.959397 0.596345 0.385594 -3.7726 0.524414 0.549057 -5.24199 0.620711 
0.319652 -3.01293 0.671749 1.00323 -0.379504 0.813088 0.290361 -2.2792 0.711333 
0.849442 -6.67454 1.4194 1.61621 -7.31216 4.16752 0.314594 -1.59304 0.699185 
0.638172 -1.34354 0.825242 1.26612 -7.35176 2.70821 1.01398 0.2767 0.713507 
1.94297 -7.09236 5.12987 0.426661 -4.42004 0.514701 0.313175 -3.31892 0.588142 
0.698422 -6.05195 1.06757 0.263715 -2.58613 0.673618 1.10549 -7.06002 2.23135 
0.2599 -1.84876 0.702931 0.767104 -0.962007 0.83511 0.38231 -1.37547 0.759294 
1.4438 -7.27381 3.63322 0.975001 0.927405 0.583499 0.545573 -5.28128 0.777869 
0.328195 -3.76139 0.520428 0.934141 -6.62924 1.76235 0.248127 -2.89621 0.617008 
0.830336 -0.390858 0.759324 0.220817 -2.14563 0.670859 1.30368 -7.16914 3.09451 
0.266755 -1.49272 0.738378 1.67112 -7.13258 4.53885 0.504441 -1.2227 0.827481 
0.846034 0.239743 0.6462 0.758379 -6.04684 1.33978 0.398176 -4.46017 0.592263 
1.16093 -6.93824 2.54226 0.255663 -3.27359 0.566697 2.04677 -7.06747 5.28496 
0.192044 -2.46028 0.620428 0.202898 -1.72612 0.695821 0.610686 -0.910406 0.804861 
1.44948 -7.0996 3.93233 0.328774 -1.27889 0.825083 0.818678 0.871321 0.51204 
1.28301 -7.01038 3.26661 1.0072 -6.56186 2.0539 0.575297 -5.31393 0.97244 
0.286238 -3.77829 0.542286 0.664793 -0.402073 0.694562 0.192861 -2.8303 0.58805 
0.15317 -2.01977 0.628464 0.229065 -1.39839 0.783384 0.422787 -1.13772 0.883988 
1.73069 -7.13669 4.68249 0.678331 0.188786 0.554375 1.41328 -7.03793 3.91251 
1.16857 -6.81406 2.74935 0.830623 -6.03386 1.59752 0.398086 -4.51235 0.704097 
0.215597 -3.27094 0.565347 0.138106 -2.38262 0.587734 0.492092 -0.866517 0.816781 
2.09468 -6.98316 5.21402 0.146878 -1.61455 0.680214 0.305531 -1.22269 0.924527 
0.659381 0.794734 0.407066 1.6065 -7.14319 4.38396 1.25663 -6.91515 3.36553 
1.0461 -6.49529 2.27599 0.629504 -5.35095 1.17495 0.520672 -0.41549 0.654235 
0.267164 -3.8224 0.586154 0.159917 -2.81766 0.579309 0.10095 -1.93958 0.596836 
0.386165 -1.09847 0.995134 0.195271 -1.32718 0.819858 1.85129 -7.15551 4.77991 
0.52154 0.128225 0.470381 1.14981 -6.73542 2.88314 1.40324 -7.05432 3.89066 
0.887956 -6.02812 1.8107 0.426333 -4.58342 0.835541 0.196532 -3.3038 0.576106 
0.109417 -2.36453 0.574386 0.418646 -0.842783 0.889076 0.100372 -1.54601 0.66041 
0.295084 -1.20607 1.02545 2.10802 -6.7254 4.99412 0.506264 0.704595 0.296727 
1.62007 -7.21091 4.31178 1.04664 -6.45838 2.42195 1.24538 -6.91881 3.4109 
0.68754 -5.4021 1.35711 0.411398 -0.431465 0.66743 0.274662 -3.89674 0.648715 
0.150407 -2.849 0.581081 0.0728494 -1.92144 0.578948 0.375865 -1.10217 1.12662 
0.162929 -1.29485 0.832681 1.83142 -7.08008 4.5792 0.387974 0.0648508 0.426435 
1.4211 -7.15073 3.85842 1.12585 -6.73688 2.9447 0.9115 -6.04434 1.95845 
0.4718 -4.67672 0.968337 0.199854 -3.36802 0.59751 0.106958 -2.39831 0.572955 
0.383498 -0.844485 1.00552 0.0709786 -1.53622 0.639463 0.280684 -1.22364 1.08703 
0.369586 0.609405 0.209345 2.09968 -6.35765 4.71918 1.60184 -7.23826 4.15325 
1.25236 -7.01652 3.40298 1.02199 -6.47784 2.48726 0.343029 -0.451186 0.741283 
0.72717 -5.47318 1.49523 0.305241 -4.00095 0.725637 0.162099 -2.91218 0.589923 
0.0709796 -1.96038 0.571716 0.366806 -1.13725 1.22343 0.133228 -1.30661 0.814952 
1.79449 -6.89755 4.33841 0.289588 0.00610084 0.446508 1.41442 -7.2434 3.73815 
1.11166 -6.8276 2.94099 0.90007 -6.09893 2.02815 0.517266 -4.79228 1.08428 
0.22415 -3.46037 0.634103 0.126992 -2.46808 0.579728 0.364874 -0.870239 1.11572 
0.0622806 -1.58241 0.61932 0.252705 -1.26369 1.08354 0.26007 0.518686 0.16844 
2.08025 -5.96443 4.47305 1.55824 -7.19239 3.94768 1.24926 -7.14363 3.31136 
0.990981 -6.57 2.47892 0.736823 -5.5731 1.57165 0.305677 -0.477504 0.844866 
0.349051 -4.13143 0.810152 0.191378 -2.99881 0.611835 0.0921832 -2.03997 0.573744 
0.340639 -1.19016 1.24436 0.109599 -1.35702 0.771088 0.183845 0.44001 0.181567 
0.211659 -1.31382 1.016 0.0736607 -1.66991 0.604102 0.163869 -2.56038 0.600211 
0.265166 -3.57887 0.691553 1.37696 -7.29093 3.55986 1.0981 -6.96882 2.86196 
0.548074 -4.93338 1.1664 0.867512 -6.2087 2.02083 1.74482 -6.62771 4.07987 
0.340038 -0.920996 1.16967 0.228599 -0.0421293 0.524109 0.0963918 -1.43566 0.715451 
0.292897 -1.24879 1.1818 0.130792 -2.14397 0.59129 0.234875 -3.1067 0.65894 
0.394525 -4.28854 0.892161 0.279494 -0.530018 0.931898 0.719788 -5.71488 1.57935 
0.959841 -6.71911 2.39905 1.22037 -7.25181 3.15477 1.49349 -7.06298 3.70868 
2.05734 -5.5717 4.34751 0.133588 0.369164 0.240664 0.165923 -1.36705 0.907451 
0.102227 -1.78216 0.604271 0.29713 -0.993885 1.14344 0.212776 -2.67068 0.648371 
0.316765 -3.72495 0.771055 0.559323 -5.11099 1.20281 0.825992 -6.37098 1.94249 
1.0702 -7.11623 2.71831 1.3106 -7.27519 3.34056 0.19616 -0.116064 0.635092 
1.69081 -6.28734 3.85033 0.0976615 -1.53283 0.669761 0.229779 -1.30314 1.05477 
0.181347 -2.26484 0.639165 0.290009 -3.2408 0.742555 0.43352 -4.48038 0.959327 
0.687246 -5.90425 1.52301 0.244595 -0.615954 0.954815 0.922883 -6.89369 2.25852 
1.16019 -7.31563 2.95006 1.41549 -6.84424 3.45488 2.03179 -5.1443 4.38715 
0.10073 0.296447 0.328263 0.127256 -1.42337 0.792923 0.14444 -1.91009 0.637408 
0.236285 -1.07746 1.04258 0.271364 -2.80534 0.740845 0.373078 -3.90697 0.866625 
0.555119 -5.33089 1.19052 0.78124 -6.57207 1.81005 1.01641 -7.23724 2.5238 
1.2211 -7.18467 3.09178 0.165355 -0.201039 0.692497 1.64754 -5.86268 3.72941 
0.115614 -1.64427 0.659668 0.163507 -1.34679 0.898318 0.240485 -2.4081 0.736083 
0.354495 -3.41178 0.865658 0.464174 -4.71591 1.00314 0.192755 -0.719212 0.895332 
0.649448 -6.13114 1.41818 1.07026 -7.32274 2.7087 0.872088 -7.06526 2.07635 
1.33863 -6.51748 3.23145 0.0739191 0.209723 0.40039 1.98852 -4.66037 4.49526 
0.106296 -1.48814 0.711347 0.196975 -2.05798 0.723939 0.165817 -1.15267 0.894029 
0.338719 -2.9771 0.887107 0.429806 -4.13562 0.96733 0.544808 -5.58751 1.14199 
0.731475 -6.7818 1.64238 1.11564 -7.00434 2.82939 0.934779 -7.31807 2.29938 
0.122299 -0.31159 0.673284 1.63225 -5.30474 3.79475 0.149583 -1.77499 0.709954 
0.108309 -1.38162 0.756196 0.306581 -2.58768 0.89458 0.424466 -3.62876 1.01826 
0.489816 -4.99124 1.02703 0.128534 -0.829018 0.776314 0.612595 -6.37472 1.28954 
0.79997 -7.20418 1.86601 0.958706 -7.24011 2.45558 1.27966 -6.08607 3.10995 
0.0398128 0.0929602 0.416176 0.108442 -1.57192 0.696985 0.256813 -2.23971 0.877427 
1.90442 -4.17671 4.46068 0.0970851 -1.21 0.735226 0.41203 -3.19353 1.07953 
0.48334 -4.40683 1.06371 0.536835 -5.86031 1.08172 0.673463 -6.97271 1.45984 
0.826457 -7.33527 2.05588 1.03837 -6.56502 2.65497 0.0663336 -0.444736 0.587494 
1.48081 -5.04804 3.61675 0.0759213 -1.42073 0.672262 0.195882 -1.93843 0.835312 
0.37666 -2.8103 1.10834 0.492192 -3.88389 1.17898 0.0605129 -0.929972 0.629911 
0.514284 -5.28152 1.04597 0.578978 -6.60634 1.1637 0.705723 -7.29414 1.64097 
0.841974 -7.01631 2.22434 -0.00671047 -0.0584584 0.364818 0.132211 -1.69003 0.769884 
1.05622 -5.89018 2.74334 0.0429176 -1.2501 0.609693 0.31946 -2.46255 1.09135 
0.4824 -3.4389 1.28889 1.79322 -3.82439 4.22433 0.529131 -4.69063 1.15204 
0.698603 -7.26374 1.80705 0.535202 -6.11729 1.03659 0.605723 -7.12054 1.27881 
0.00356299 -0.584894 0.461842 0.0716409 -1.48467 0.679787 1.4561 -4.48747 3.65561 
0.247689 -2.14299 1.02848 0.742575 -6.63163 2.06328 0.441925 -3.05485 1.34424 
-0.000425417 -1.00832 0.49444 0.546001 -4.14083 1.32193 0.591946 -7.31747 1.40746 
0.537727 -5.54671 1.07612 0.548434 -6.79432 1.06236 -0.0618783 -0.233078 0.26438 
1.01881 -5.35283 2.76828 0.169256 -1.85244 0.923846 0.0146495 -1.28852 0.561526 
0.375709 -2.70411 1.33078 0.559263 -7.0823 1.56002 0.535103 -3.66662 1.47209 
0.529115 -7.20385 1.11021 0.561205 -4.94027 1.22993 0.538317 -6.32101 1.02441 
1.65507 -3.55296 3.83401 -0.0565321 -0.711383 0.332021 0.640864 -6.18778 1.92948 
0.0903653 -1.59106 0.782888 0.29393 -2.36829 1.25261 1.38704 -4.03495 3.49368 
0.463823 -7.25066 1.17242 0.487694 -3.26522 1.55023 -0.0419694 -1.06246 0.414238 
0.574869 -4.34805 1.42472 0.518472 -6.90801 0.99614 0.555588 -5.74479 1.1223 
-0.116471 -0.408238 0.15044 0.988989 -4.79019 2.78338 0.0147397 -1.34947 0.612703 
0.416287 -6.76996 1.33136 0.205702 -2.04367 1.12034 0.411504 -2.90434 1.54053 
0.557106 -3.82263 1.59046 0.444361 -7.19532 0.960592 0.574396 -5.10918 1.29183 
0.538959 -6.4368 1.04296 1.50101 -3.34167 3.36061 -0.10155 -0.807604 0.243379 
0.577145 -5.60243 1.90422 0.117399 -1.73529 0.946295 0.319445 -2.55302 1.44948 
-0.0562293 -1.10773 0.422666 0.327073 -7.04366 0.954882 1.29036 -3.66765 3.1717 
0.502193 -3.38385 1.68002 0.574649 -4.4665 1.47588 0.48027 -6.91859 0.953509 
0.561164 -5.83797 1.17356 0.959954 -4.23685 2.70461 -0.156859 -0.560328 0.0738904 
0.299118 -6.24237 1.2007 0.0331313 -1.44731 0.743151 0.222129 -2.19815 1.29245 
0.417936 -3.00643 1.67429 0.54499 -3.87624 1.62852 0.342449 -7.04166 0.822304 
0.567283 -5.17126 1.32904 0.525974 -6.43068 1.06673 1.33659 -3.16223 2.84736 
-0.118845 -0.87693 0.244753 0.55457 -4.92012 1.93285 -0.0453287 -1.17423 0.52091 
0.318321 -2.64805 1.5769 0.125395 -1.84077 1.08452 0.482721 -3.38198 1.71484 
0.18757 -6.55698 0.800925 0.549594 -4.48438 1.47642 0.548425 -5.80805 1.2062 
0.419869 -6.78175 0.899266 1.17133 -3.36576 2.72629 0.910029 -3.78103 2.47347 
-0.165742 -0.683181 0.100376 0.269398 -5.33057 1.29353 0.215488 -2.28072 1.40424 
0.393424 -2.97809 1.71277 0.505648 -3.83359 1.59398 0.0306276 -1.48048 0.831008 
0.541485 -5.11949 1.33173 0.217195 -6.65694 0.679035 0.486656 -6.28624 1.05383 
1.16313 -2.99424 2.31214 -0.0785759 -1.05264 0.454375 0.643874 -3.99192 2.01284 
0.289103 -2.61668 1.61592 0.436396 -3.27591 1.66288 0.115412 -1.89422 1.17184 
0.507523 -4.40965 1.4323 0.0876276 -5.75892 0.759398 0.511776 -5.65155 1.191 
0.321034 -6.45645 0.787485 0.982825 -3.23169 2.23405 -0.141461 -0.788718 0.238813 
0.0159516 -1.46685 0.866464 0.346013 -2.83632 1.66321 0.312501 -4.41276 1.39648 
0.181919 -2.24534 1.43084 0.450161 -3.71837 1.505 0.497334 -4.96154 1.28609 
0.411222 -5.99252 0.965562 0.076369 -5.96645 0.538647 1.00675 -2.84986 1.84014 
-0.0591631 -1.13249 0.594796 0.680097 -3.42323 1.8066 0.243079 -2.47976 1.57891 
0.0775106 -1.82272 1.15998 0.374207 -3.10444 1.54558 0.453177 -4.25248 1.34503 
0.445578 -5.37799 1.10076 0.0733738 -4.74964 0.83989 0.186581 -5.91311 0.606526 
0.869251 -3.01595 1.77007 0.140075 -2.14037 1.40573 0.285242 -2.62134 1.54297 
-0.103146 -0.925355 0.447944 0.410318 -3.57891 1.34937 0.386614 -3.55047 1.37543 
0.432234 -4.70584 1.17789 0.297176 -5.55038 0.783198 -0.0147267 -1.39329 0.854548 
-0.0269168 -5.0892 0.446681 0.841054 -2.70093 1.35356 0.685189 -2.97066 1.37188 
0.0492801 -1.78196 1.16707 0.190468 -2.2697 1.48089 0.305313 -2.90313 1.3828 
0.385166 -4.01578 1.20919 0.349661 -4.99643 0.927006 0.104968 -3.93726 0.811705 
0.0400935 -5.18348 0.385564 0.0998574 -1.98598 1.34873 -0.0816893 -1.05425 0.611402 
0.218427 -2.37738 1.36788 0.397471 -3.13951 1.00238 0.314656 -3.32484 1.20785 
0.344422 -4.36359 1.00104 0.163621 -4.9834 0.533322 -0.0253539 -1.43431 0.923332 
-0.0713339 -4.22644 0.366169 0.696898 -2.57555 0.941578 0.0216602 -1.70626 1.16013 
0.572537 -2.77384 0.900609 0.133784 -2.0075 1.32081 0.230208 -2.66477 1.18583 
0.233617 -4.52661 0.683608 -0.0690548 -4.44694 0.174971 0.299907 -3.70642 1.01853 
0.136898 -3.30221 0.583306 0.0556311 -1.74683 1.2273 -0.0792341 -1.15652 0.732246 
0.142755 -2.09788 1.15022 -0.10013 -3.63346 0.160178 0.0401576 -4.36854 0.258784 
0.237559 -3.95553 0.760169 0.230562 -3.03975 0.999257 -0.0461098 -1.40282 0.950619 
0.381605 -2.7592 0.527266 0.537995 -2.44671 0.499576 -0.0115328 -1.52573 1.08729 
0.0617774 -1.67916 1.09948 0.0827468 -2.98384 0.198773 -0.142033 -3.84294 -0.0607103 
0.112809 -4.0122 0.390689 0.147409 -2.38591 0.95886 0.198475 -3.34167 0.776216 
-0.00970859 -1.3978 1.01712 -0.0920357 -1.15469 0.787102 0.397456 -2.34604 0.118535 
0.252977 -2.61263 0.0828789 -0.152797 -3.23271 -0.172374 0.0615379 -1.79308 0.907662 
-0.0662138 -3.79001 -0.0427877 0.124832 -3.512 0.476217 0.134398 -2.71283 0.753167 
-0.0639151 -1.25624 0.920491 -0.0236434 -2.77645 -0.251811 -0.0142297 -1.3327 0.856226 
0.00731546 -3.5239 0.0789156 -0.214147 -3.33285 -0.38413 0.0590702 -2.09676 0.708266 
0.0901946 -2.93671 0.501662 -0.0711759 -1.07196 0.811362 0.243192 -2.25473 -0.289021 
0.103532 -2.48854 -0.371856 -0.10722 -0.999601 0.744622 -0.0161652 -1.52568 0.655483 
0.0267146 -3.08215 0.188465 -0.155115 -3.32438 -0.373067 -0.207563 -2.83611 -0.609271 
0.029085 -2.34076 0.479441 -0.0749812 -1.07694 0.622384 -0.0689839 -3.1199 -0.21269 
-0.290728 -2.93639 -0.787682 -0.00924766 -2.53267 0.219995 -0.0863466 -2.47391 -0.767405 
-0.0385488 -1.75976 0.438827 -0.111439 -0.819645 0.590175 -0.124026 -0.770634 0.612116 
0.0701859 -2.18037 -0.730306 -0.221696 -2.9929 -0.691312 -0.0481212 -2.71185 -0.087908 
-0.101957 -1.2102 0.39386 -0.0718937 -1.95048 0.200684 -0.259438 -2.50344 -1.09079 
-0.147405 -0.765488 0.360824 -0.132737 -2.80157 -0.515637 -0.358471 -2.70272 -1.14987 
-0.100686 -2.13374 -1.14609 -0.0853429 -2.17435 -0.044429 -0.159914 -0.529442 0.380134 
-0.133709 -1.39343 0.175772 -0.100058 -2.43077 -0.352424 -0.303274 -2.70539 -1.07392 
-0.370008 -2.38465 -1.47128 -0.185089 -0.84114 0.154283 -0.1503 -1.59118 -0.0554603 
-0.264918 -2.11195 -1.52207 -0.208786 -0.437637 0.141824 -0.200022 -2.5501 -0.852067 
-0.447709 -2.43399 -1.60598 -0.128425 -1.92485 -0.286175 -0.208669 -0.997491 -0.0187718 
-0.138719 -2.22943 -0.614629 -0.439767 -2.11414 -1.89095 -0.408194 -2.42947 -1.52851 
-0.251585 -0.497134 -0.0554058 -0.209132 -1.15504 -0.183489 -0.171173 -1.4748 -0.329657 
-0.286297 -2.33341 -1.23269 -0.143958 -1.79486 -0.549422 -0.539888 -2.14082 -2.06999 
-0.259568 -0.682534 -0.205401 -0.18559 -2.08906 -0.909192 -0.499049 -2.15492 -1.92753 
-0.213306 -1.0127 -0.347738 -0.326177 -2.06426 -1.44628 -0.157662 -1.40356 -0.53635 
-0.17283 -1.78284 -0.877717 
