# vtk DataFile Version 3.0
vtk output
ASCII
DATASET POLYDATA
POINTS 724 float
10.0557 -10.2459 10.9995 10.2537 -11.3164 10.8905 9.89406 -9.07662 11.2497 
10.472 -12.2724 10.8823 9.79575 -7.99759 11.6092 10.0467 -9.53929 11.4673 
10.705 -13.1156 10.9474 9.74549 -6.92924 12.0799 10.214 -10.4502 11.3919 
9.95465 -8.59616 11.7948 10.3974 -11.2907 11.3806 10.59 -12.1177 11.3643 
10.9181 -13.7719 11.066 9.88807 -7.65531 12.1656 9.74342 -5.87975 12.6357 
10.1411 -9.45466 11.8795 10.781 -12.6934 11.5064 10.3265 -10.3808 11.8596 
9.85865 -6.68987 12.6297 10.0496 -8.43018 12.2628 11.1229 -14.3075 11.2351 
9.79638 -4.83432 13.263 10.5459 -11.3485 11.8646 10.9882 -13.3129 11.6238 
9.85852 -5.66102 13.1493 9.99438 -7.40615 12.7079 10.2206 -9.25853 12.3262 
10.7803 -12.1341 12.0094 11.3204 -14.7415 11.4555 10.3979 -10.1386 12.3273 
9.8873 -4.00853 13.8202 9.968 -6.29897 13.2275 10.1446 -8.18982 12.7683 
11.1939 -13.8371 11.788 9.94317 -5.01313 13.7088 10.5956 -10.9552 12.394 
11.0219 -12.8629 12.1609 10.3016 -8.99429 12.8134 10.0992 -7.08191 13.2641 
10.0206 -3.23185 14.4261 11.5177 -15.0985 11.7365 11.4002 -14.3197 11.974 
10.8217 -11.7298 12.5391 10.0136 -4.1067 14.2305 10.4651 -9.78733 12.8499 
10.0627 -5.83972 13.7727 10.2455 -7.88937 13.3062 11.2728 -13.5451 12.3193 
10.6537 -10.5556 12.943 10.0846 -4.77727 14.2721 10.2035 -6.70555 13.8184 
10.3964 -8.67732 13.3523 11.0747 -12.5264 12.6852 11.6863 -15.344 12.0263 
10.1315 -3.28773 14.8034 10.1832 -2.51326 15.081 11.545 -14.3804 12.3479 
10.555 -9.43623 13.4108 10.8776 -11.3499 13.0807 10.1912 -5.53843 14.3295 
10.3573 -7.5578 13.8697 11.3543 -13.3791 12.7734 10.1678 -3.79796 14.8325 
11.7437 -14.814 12.5458 10.7367 -10.1837 13.511 10.5129 -8.36009 13.9281 
10.3288 -6.38514 14.386 11.1415 -12.2385 13.2012 10.2255 -4.41303 14.8574 
10.2754 -2.72809 15.3928 10.3389 -1.91428 15.7025 11.8733 -15.5517 12.3997 
11.5785 -13.9433 12.9048 10.6717 -9.10842 14.0012 10.9538 -10.9924 13.6307 
10.4868 -7.24831 14.4525 10.3197 -5.16006 14.8944 10.3029 -3.27234 15.4112 
11.4035 -12.9924 13.3507 11.7864 -14.3932 13.0785 10.4853 -1.38902 16.3084 
10.4127 -2.26386 15.9559 11.9477 -15.0239 12.9599 10.8461 -9.84197 14.0958 
10.6482 -8.05997 14.5273 10.4548 -6.0186 14.9537 10.3504 -3.94356 15.4089 
11.2021 -11.8163 13.7762 12.0607 -15.6935 12.8282 11.66 -13.6353 13.5116 
10.43 -2.89219 15.9376 10.8083 -8.80281 14.6084 10.4399 -4.73113 15.433 
10.6184 -6.91331 15.0352 11.0476 -10.5929 14.2174 11.4786 -12.6392 13.9358 
10.5555 -1.56778 16.575 11.9255 -14.3487 13.5591 10.6596 -0.806556 17.0564 
10.4756 -3.58475 15.9252 12.1169 -15.0249 13.4555 10.5766 -5.629 15.4982 
10.7879 -7.74814 15.1272 10.9759 -9.50313 14.7039 10.5465 -2.07324 16.5025 
11.2882 -11.4172 14.3546 12.2334 -15.7678 13.2693 11.7822 -13.5081 14.0304 
10.5653 -4.37844 15.9498 10.5577 -2.64997 16.453 10.7464 -6.55631 15.6 
10.9525 -8.49126 15.2199 11.1649 -10.2272 14.8094 11.5802 -12.3722 14.473 
12.0584 -14.2678 14.0538 10.7004 -1.16957 17.2009 10.8263 -0.271309 17.7932 
10.6043 -3.31061 16.4337 12.2667 -14.9393 13.9794 10.7023 -5.26768 16.0292 
10.9241 -7.41401 15.7124 11.117 -9.18256 15.3094 10.6734 -1.7676 17.0507 
12.3914 -15.7921 13.7091 11.3931 -11.0623 14.9105 11.8865 -13.2884 14.5593 
10.8754 -0.471759 17.9849 10.6961 -4.05723 16.4716 10.6792 -2.37665 16.9639 
10.8735 -6.19321 16.1488 11.0946 -8.17097 15.8144 11.2949 -9.89307 15.3902 
12.1573 -14.0355 14.5977 11.6656 -11.9874 15.0166 10.826 -0.993359 17.753 
12.4426 -15.1707 14.2952 11.0165 0.389012 18.6865 10.7311 -2.99693 16.9587 
10.8317 -4.91192 16.5613 11.0549 -7.06013 16.2758 11.2589 -8.86541 15.8969 
11.9528 -12.8717 15.1182 10.7919 -1.57089 17.5626 11.5018 -10.6659 15.4753 
12.3652 -14.5001 14.7164 12.5686 -15.7748 14.2457 11.031 -0.00225573 18.7095 
10.8254 -3.71179 17.004 11.0006 -5.81776 16.6889 10.8068 -2.08924 17.5087 
11.2295 -7.82917 16.3836 12.2058 -13.5364 15.233 11.4283 -9.54469 15.97 
11.7469 -11.5081 15.5793 10.9426 -0.747101 18.2803 12.5838 -15.0065 14.8682 
11.1786 1.09069 19.5358 10.9616 -4.53956 17.0978 10.8597 -2.66675 17.5044 
11.1809 -6.68007 16.8207 12.4353 -14.1111 15.3204 11.3952 -8.52015 16.4695 
11.6189 -10.2541 16.0508 12.0134 -12.3256 15.7119 10.9249 -1.2404 18.1537 
12.7273 -15.7218 14.7684 11.1026 0.0167817 19.0495 11.2214 0.866481 19.7031 
10.9551 -3.35185 17.5479 11.1279 -5.42514 17.2249 11.3563 -7.44964 16.9333 
10.9386 -1.73631 18.0872 11.5623 -9.17764 16.5461 12.2805 -13.083 15.8355 
11.8426 -11.0127 16.1595 12.6195 -14.4731 15.4898 11.0782 -0.431095 18.9058 
12.765 -15.0609 15.3772 11.3414 1.96403 20.4548 11.0925 -4.15585 17.6398 
11.305 -6.27475 17.3556 10.989 -2.29744 18.067 11.5248 -8.13926 17.0266 
11.746 -9.84598 16.6332 12.0993 -11.8288 16.289 12.513 -13.6397 15.9859 
11.0661 -0.878514 18.7807 12.8906 -15.6299 15.3522 11.2399 0.5383 19.7616 
11.2588 -5.02384 17.7632 11.0838 -2.96636 18.0995 11.4793 -7.03925 17.4707 
11.6949 -8.79069 17.1144 11.3691 1.57769 20.5292 11.0775 -1.35966 18.6888 
12.737 -14.2745 16.0261 11.9599 -10.5751 16.739 12.361 -12.5801 16.4415 
11.2202 0.0521645 19.5974 12.9019 -14.883 15.964 11.5128 2.83168 21.2963 
11.2246 -3.75941 18.1848 11.4335 -5.86041 17.8904 11.1234 -1.91104 18.6429 
11.6502 -7.73102 17.5717 11.8803 -9.45593 17.2089 12.2044 -11.3543 16.8745 
11.2096 -0.432799 19.4336 12.6214 -13.3481 16.5342 11.3685 1.10884 20.4682 
13.0331 -15.5122 15.9094 11.3948 -4.61924 18.3051 11.2164 -2.57481 18.6548 
11.6055 -6.6192 18.0048 12.847 -14.0477 16.5563 11.8259 -8.39373 17.6691 
11.2204 -0.940007 19.3032 11.5221 2.30843 21.296 12.0923 -10.1705 17.3232 
12.4721 -12.2158 16.9932 11.351 0.561063 20.2703 13.0226 -14.7049 16.5044 
11.7059 3.63521 22.0479 11.3605 -3.36019 18.7307 11.5707 -5.45142 18.4294 
11.2635 -1.51632 19.2193 11.777 -7.31684 18.1085 11.3465 0.0220663 20.0699 
12.0176 -9.07151 17.7759 12.7303 -13.0555 17.0641 12.3359 -10.9908 17.4411 
11.5003 1.71456 21.1495 13.1582 -15.3695 16.4429 11.3559 -2.18392 19.2104 
11.5373 -4.21843 18.848 11.3619 -0.546853 19.8921 11.7413 -6.21066 18.541 
12.9539 -13.8152 17.0694 11.9571 -7.99469 18.2125 11.4755 1.07869 20.906 
12.2361 -9.82278 17.8918 11.6995 3.00978 21.9973 12.5963 -11.8858 17.5408 
13.1317 -14.511 17.0203 11.4116 -1.14168 19.7896 11.503 -2.96545 19.2753 
11.4716 0.416897 20.6362 11.7182 -5.0559 18.9707 11.8906 4.3667 22.6777 
11.9118 -6.9148 18.6425 12.157 -8.70745 18.3243 12.8449 -12.7665 17.5907 
11.6482 2.29232 21.7733 12.4807 -10.6692 18.0077 13.2693 -15.2007 16.9573 
11.5912 1.43687 21.4017 11.503 -0.177797 20.4582 11.5074 -1.81112 19.7668 
11.6871 -3.82504 19.3884 13.0603 -13.5656 17.581 11.89 -5.82261 19.0794 
12.0936 -7.61285 18.744 12.3843 -9.49471 18.4491 12.7334 -11.5799 18.0967 
11.8808 3.61172 22.5895 13.2343 -14.2913 17.53 11.7584 2.49613 22.135 
11.6001 0.78704 21.1723 11.5666 -0.781954 20.3544 11.6568 -2.58732 19.8206 
11.8757 -4.67301 19.5108 12.0588 -6.53801 19.1747 12.9684 -12.475 18.1297 
12.0417 5.03592 23.1813 12.2984 -8.35379 18.8583 12.6335 -10.3671 18.5742 
13.3703 -15.0044 17.4602 11.9491 3.48298 22.76 11.7295 1.80035 21.8981 
11.6475 0.189861 21.0132 11.6706 -1.45334 20.3244 13.1705 -13.2951 18.1054 
11.846 -3.44427 19.9276 12.051 -5.45378 19.6171 12.2387 -7.24976 19.2699 
12.8811 -11.2851 18.6643 12.5334 -9.1723 18.9939 12.0916 4.54475 23.2446 
13.3359 -14.042 18.0485 11.7444 1.17679 21.7068 11.9199 2.8422 22.598 
11.7267 -0.423162 20.9137 11.8231 -2.22454 20.3684 12.0414 -4.29962 20.0479 
12.2186 -6.18113 19.7072 13.1023 -12.179 18.6884 12.4438 -8.00824 19.3821 
12.7884 -10.0687 19.1349 12.1809 5.73385 23.6558 13.4652 -14.7806 17.9597 
12.1163 3.96592 23.2186 11.7992 0.570368 21.5593 11.8991 2.20868 22.4094 
11.8422 -1.1005 20.8807 13.2886 -13.0041 18.6531 12.0144 -3.07444 20.4677 
12.2213 -5.09367 20.1534 12.3946 -6.9023 19.7948 13.0335 -10.992 19.2357 
12.6817 -8.84862 19.5243 12.2381 5.08773 23.6847 13.4416 -13.7606 18.5907 
12.1028 3.3102 23.0765 11.9103 1.58492 22.2329 11.8909 -0.0577142 21.4636 
11.9999 -1.86989 20.9183 12.2137 -3.92974 20.5842 12.3892 -5.83395 20.2404 
13.2439 -11.8778 19.262 12.595 -7.66938 19.9009 12.9394 -9.76385 19.6795 
13.5569 -14.5312 18.4614 12.3094 6.35626 24.0883 12.2684 4.42764 23.6282 
12.0872 2.65748 22.9033 11.9641 0.959677 22.0903 13.4154 -12.6957 19.2249 
12.0193 -0.745229 21.4319 12.1916 -2.71096 21.0106 12.3977 -4.73324 20.6892 
12.5609 -6.56317 20.3222 13.183 -10.6918 19.7967 12.8283 -8.51931 20.0409 
12.3673 5.6039 24.0837 13.5545 -13.4474 19.1655 12.2746 3.75425 23.5016 
12.0949 2.00759 22.7355 12.0621 0.312314 21.9995 12.1844 -1.51525 21.468 
12.3913 -3.56033 21.1233 12.5671 -5.48573 20.7758 13.3859 -11.5683 19.8358 
12.7529 -7.33286 20.4187 13.0818 -9.44216 20.2021 13.646 -14.2617 18.9619 
12.4508 6.91978 24.5382 12.4038 4.87906 24.0064 12.2748 3.08605 23.3495 
12.1444 1.35364 22.599 12.2011 -0.386903 21.9729 13.5458 -12.3735 19.8102 
12.3765 -2.34762 21.5576 12.5777 -4.36742 21.2278 12.735 -6.2231 20.8534 
13.321 -10.3697 20.3339 12.9738 -8.17901 20.548 13.7304 -13.982 19.4476 
13.2145 -9.09469 20.7042 12.9161 -6.99075 20.9402 12.7485 -5.12923 21.3157 
12.5742 -3.18845 21.6686 12.4277 4.17709 23.886 12.2892 2.41545 23.2002 
12.3739 -1.15649 22.0139 12.2435 0.682129 22.5157 12.4966 6.09591 24.4834 
13.5177 -11.2328 20.3941 13.6737 -13.1091 19.7708 13.1194 -7.82249 21.0538 
13.4441 -10.0129 20.8443 12.9131 -5.87286 21.3919 12.76 -3.99517 21.7741 
12.5666 -1.97919 22.1068 13.6686 -12.0121 20.3955 12.3881 -0.0292695 22.4994 
12.3393 1.73648 23.0798 12.4493 3.4917 23.7532 12.5304 5.317 24.375 
12.6154 7.44692 25.0328 13.8151 -13.6744 19.9491 13.34 -8.71711 21.1952 
13.0833 -6.63565 21.4707 13.6337 -10.8589 20.9292 12.9308 -4.76227 21.8643 
12.7614 -2.81175 22.2209 12.5658 -0.79449 22.5512 12.4374 1.04167 23.0116 
12.4814 2.80479 23.6289 12.565 4.58139 24.2489 13.7873 -12.6991 20.3987 
12.6412 6.57806 24.9154 13.267 -7.44733 21.5681 13.5536 -9.61537 21.3351 
13.0923 -5.50892 21.9416 12.9445 -3.61656 22.3309 12.7592 -1.60609 22.6536 
[...]
POINT_DATA 724
VECTORS velocity double
0.899184 -0.990197 1.32089 1.05275 -0.690322 1.44163 0.791717 -1.52724 1.17027 
1.22812 -0.52277 1.48573 0.734198 -2.13538 1.07418 0.768031 -1.44875 1.08753 
1.38421 -0.341633 1.42841 0.713684 -2.73226 1.07535 0.851092 -1.13185 1.17073 
0.692568 -1.97731 0.949638 0.974438 -0.978349 1.23403 1.14434 -0.871649 1.277 
1.48104 -0.119813 1.29321 0.660655 -2.51534 0.901693 0.74862 -3.29265 1.16387 
0.680392 -1.67055 0.896453 1.2568 -0.870863 1.2019 0.743831 -1.38583 0.94451 
0.666061 -3.02664 0.949927 0.61156 -2.25035 0.764083 1.52952 0.124563 1.11101 
0.867361 -3.91336 1.25556 0.889229 -1.26678 1.00219 1.38209 -0.744667 1.098 
0.735095 -3.52342 1.07595 0.600318 -2.8207 0.758637 0.585991 -1.9399 0.70007 
1.04143 -1.32572 0.959961 1.54127 0.356979 0.907776 0.619521 -1.66126 0.718536 
1.02509 -4.56686 1.28239 0.647172 -3.33032 0.883007 0.544285 -2.55286 0.61306 
1.46628 -0.556139 0.946686 0.804538 -3.90578 1.08712 0.705705 -1.58037 0.734831 
1.21224 -1.32045 0.875771 0.506007 -2.2397 0.536842 0.570322 -3.1157 0.686394 
1.20035 -5.40245 1.26805 1.52771 0.564363 0.696622 1.5165 -0.276436 0.77427 
0.842599 -1.66658 0.714698 0.974257 -4.54696 1.14281 0.503216 -1.96598 0.51981 
0.664933 -3.5796 0.871207 0.50916 -2.86735 0.535665 1.36655 -1.12295 0.752294 
0.547725 -1.8452 0.520473 0.811129 -4.06931 0.983665 0.572389 -3.369 0.680346 
0.460385 -2.566 0.447392 1.04415 -1.7425 0.674772 1.50294 0.714343 0.524413 
1.15069 -5.38321 1.14899 1.34669 -6.35731 1.24079 1.50308 -0.417638 0.615847 
0.432687 -2.26911 0.409411 0.666018 -1.89759 0.525421 0.674217 -3.72842 0.820766 
0.510867 -3.16527 0.541445 1.28319 -1.51278 0.612716 0.998988 -4.82073 1.02646 
1.51611 -0.0119926 0.471627 0.444794 -2.07001 0.402595 0.459245 -2.88438 0.45645 
0.585765 -3.54696 0.687841 0.894268 -2.01851 0.536258 0.83778 -4.27291 0.893093 
1.2412 -6.07431 1.10961 1.43733 -7.19754 1.24627 1.46796 0.849681 0.359861 
1.40548 -1.14203 0.525733 0.417122 -2.55776 0.411023 0.534048 -2.03067 0.421522 
0.535401 -3.40732 0.599723 0.693191 -3.85486 0.769755 1.06989 -5.33308 0.969071 
1.12251 -1.97136 0.520527 1.46468 -0.710405 0.43796 1.49911 -7.8758 1.32772 
1.28691 -6.64937 1.09323 1.49492 0.138986 0.348185 0.401862 -2.26608 0.393602 
0.490989 -3.16407 0.543666 0.602374 -3.66047 0.692524 0.881116 -4.56741 0.824587 
0.718913 -2.14597 0.459379 1.43024 0.955161 0.241936 1.3002 -1.64664 0.488409 
1.08714 -5.69298 0.913789 0.442429 -2.81495 0.501818 0.711825 -3.97895 0.708475 
0.562993 -3.57594 0.667454 0.443833 -2.10264 0.404194 0.972821 -2.19559 0.505355 
1.3921 -7.53302 1.23178 1.43506 -0.880558 0.424419 1.57527 -8.47549 1.58699 
0.885881 -4.78014 0.752039 1.46945 0.073596 0.321489 0.606649 -3.70705 0.666204 
0.52984 -3.37874 0.654729 0.404445 -2.44722 0.470967 1.22949 -6.734 1.04068 
0.585128 -2.12136 0.452941 1.39534 1.02855 0.191509 1.24194 -1.82744 0.526318 
0.705401 -4.0615 0.635259 1.04471 -5.81207 0.851476 0.570946 -3.64601 0.697763 
0.480204 -3.02317 0.625099 0.404091 -2.14811 0.457992 0.861611 -2.21125 0.544257 
1.39809 -1.0182 0.484271 1.40533 -7.84718 1.385 1.68217 -8.82923 2.03611 
0.851135 -4.87694 0.682014 1.43824 -0.0543915 0.383377 0.590036 -3.7026 0.611153 
0.547436 -3.49387 0.731105 0.425068 -2.59217 0.580561 1.19987 -6.91342 1.0799 
1.36189 1.07827 0.202542 0.493898 -2.02402 0.487435 1.15377 -1.944 0.615417 
1.55176 -8.40234 1.90692 0.674651 -4.10907 0.564639 0.998753 -5.91912 0.834044 
0.549602 -3.62108 0.677026 0.499697 -3.14502 0.719 0.390159 -2.18085 0.537902 
1.32557 -1.24912 0.610817 0.717198 -2.08557 0.585951 1.3464 -7.72347 1.49278 
1.39781 0.320731 0.398984 1.85612 -8.97825 2.79382 0.805704 -4.97572 0.642911 
0.553104 -3.66897 0.544021 0.528794 -3.49279 0.744483 0.435674 -2.68017 0.669189 
0.990813 -1.99117 0.70068 1.13309 -6.84389 1.12514 0.419792 -1.91379 0.532958 
1.36395 -0.598971 0.592574 1.31649 1.11542 0.27675 1.63613 -8.44665 2.41459 
0.627873 -4.15335 0.511938 0.50187 -3.53006 0.618968 0.939531 -5.96075 0.861555 
0.484905 -3.16377 0.752816 1.16269 -1.57155 0.758249 0.379843 -2.20934 0.610192 
0.558927 -1.86397 0.603613 1.32568 -7.65109 1.69073 1.33915 0.187554 0.54437 
2.00386 -8.81764 3.62341 0.499741 -3.62812 0.481667 0.746359 -5.0414 0.641998 
0.476279 -3.39593 0.701805 1.24889 -0.934869 0.753522 0.421763 -2.70315 0.712026 
0.36474 -1.83645 0.577186 0.772035 -1.85535 0.727571 1.10416 -6.87007 1.29877 
1.25904 1.13043 0.380323 1.54524 -8.09805 2.45173 1.82727 -8.44105 3.38754 
0.565868 -4.18703 0.486731 0.43709 -3.41327 0.548682 0.435517 -3.08948 0.727934 
0.896821 -6.02577 0.976114 0.359308 -2.2146 0.654206 0.970364 -1.61128 0.825064 
0.427366 -1.64983 0.60836 1.24151 -0.393839 0.735909 1.31428 -7.51271 1.98348 
1.24338 0.39757 0.616256 2.07375 -8.29334 4.50673 0.433437 -3.59175 0.437837 
0.402812 -3.24814 0.630127 0.690857 -5.1126 0.701518 0.378637 -2.65231 0.704607 
0.321417 -1.78511 0.61226 0.582012 -1.61711 0.712442 1.05944 -1.14934 0.848737 
1.09369 -6.8421 1.56039 1.16966 1.12268 0.485969 1.60514 -7.98054 3.00232 
0.364616 -3.30514 0.489682 0.499239 -4.22658 0.500344 0.36161 -2.95059 0.665085 
0.320234 -2.17194 0.662638 1.84626 -8.05354 4.07301 0.873069 -6.06075 1.17282 
1.11187 -0.439688 0.794698 0.339618 -1.49894 0.621021 0.750576 -1.50367 0.817141 
1.36679 -7.47297 2.45519 1.11538 0.328429 0.684296 2.14037 -7.69401 5.23985 
0.360258 -3.56871 0.419278 0.323954 -3.09876 0.56067 0.649103 -5.17332 0.827339 
0.310819 -2.53559 0.658531 0.279239 -1.72351 0.633262 0.434565 -1.39503 0.698415 
1.1307 -6.85957 1.93996 0.890681 -1.11515 0.851283 1.61141 -7.74069 3.5276 
1.05406 1.08766 0.537534 0.291485 -3.22447 0.452967 0.438356 -4.26711 0.558487 
0.280095 -2.79304 0.594342 0.955818 -0.472585 0.790823 0.261863 -2.07248 0.639472 
0.887941 -6.11683 1.45934 1.84969 -7.61061 4.64987 0.281134 -1.3935 0.649135 
0.591214 -1.33444 0.799196 1.38741 -7.34866 2.91471 0.965027 0.275956 0.674006 
2.27369 -7.3179 5.73839 0.288255 -3.56147 0.428199 0.252273 -2.98391 0.513182 
0.634269 -5.23495 1.01539 0.232248 -2.38699 0.596761 1.15917 -6.81805 2.32607 
0.231356 -1.63428 0.640048 0.726064 -1.04751 0.821686 0.352163 -1.24463 0.726327 
1.58537 -7.44067 3.98562 0.916031 1.02592 0.522407 0.396577 -4.31738 0.662078 
0.223166 -3.17516 0.437791 0.904012 -6.11069 1.74668 0.208359 -2.66307 0.540679 
0.792774 -0.482088 0.742621 0.192393 -1.93985 0.597828 1.36176 -7.16065 3.30233 
0.242575 -1.3043 0.692522 1.91022 -7.29303 5.06823 0.476689 -1.1915 0.810782 
0.803074 0.220627 0.609389 0.633934 -5.26348 1.22568 0.228718 -3.57641 0.465135 
1.1368 -6.68948 2.60454 0.194898 -2.9159 0.489894 2.37067 -7.14302 5.87675 
0.161308 -2.25474 0.543298 0.178716 -1.52254 0.634635 0.585283 -0.97187 0.800918 
1.57768 -7.18108 4.32177 0.311419 -1.15417 0.798621 0.763824 0.941099 0.450689 
1.2914 -6.93774 3.46721 0.896256 -6.04722 1.98821 0.375599 -4.36571 0.795556 
0.165755 -3.15692 0.438926 0.636988 -0.485443 0.685056 0.157901 -2.58682 0.512553 
0.126911 -1.81449 0.555052 0.213075 -1.22842 0.741809 0.410566 -1.10003 0.876068 
1.96983 -7.15121 5.21247 0.640612 0.157284 0.521164 1.50439 -7.00474 4.2726 
1.07575 -6.5251 2.78793 0.632574 -5.26406 1.4245 0.190141 -3.61469 0.527178 
0.154633 -2.89043 0.482187 0.112853 -2.17365 0.511234 0.481487 -0.91159 0.822959 
2.37214 -7.00894 5.7095 0.127418 -1.42091 0.620403 0.298257 -1.11343 0.902037 
0.607453 0.839379 0.345967 1.78036 -7.06335 4.83535 1.22468 -6.75058 3.55594 
0.858548 -5.96135 2.17167 0.370021 -4.41475 0.938003 0.503513 -0.488903 0.653531 
0.12583 -3.17012 0.45377 0.132394 -2.56487 0.503735 0.079707 -1.73584 0.523452 
0.385815 -1.06498 0.992324 0.186417 -1.17501 0.780809 2.08267 -7.09893 5.24152 
0.490188 0.0900672 0.442762 1.00493 -6.38705 2.90754 1.46412 -6.89201 4.21461 
0.617011 -5.25574 1.58909 0.175453 -3.67916 0.607019 0.132224 -2.89837 0.482032 
0.0931222 -2.15458 0.499472 0.420774 -0.880383 0.902991 0.0859904 -1.35979 0.600814 
0.295729 -1.11273 1.00389 2.29272 -6.79353 5.33069 0.457814 0.729506 0.237423 
1.76885 -7.05474 4.69234 0.799045 -5.89064 2.29203 1.18602 -6.64748 3.58426 
0.368842 -4.47135 1.06872 0.405283 -0.496054 0.675429 0.108557 -3.21794 0.482917 
0.129734 -2.58464 0.504356 0.0590777 -1.72105 0.506545 0.384658 -1.07743 1.12573 
0.159698 -1.15458 0.793872 1.99415 -7.03004 4.89909 0.364962 0.0249385 0.406624 
1.46613 -6.89469 4.1328 0.947094 -6.31308 2.95516 0.581417 -5.2583 1.70165 
0.179817 -3.76898 0.693693 0.127841 -2.93505 0.488958 0.100734 -2.18759 0.500873 
0.395689 -0.881725 1.02366 0.0618609 -1.35536 0.57938 0.287501 -1.14064 1.06506 
0.326542 0.62089 0.15476 2.18225 -6.51833 4.91556 1.70334 -7.0622 4.41701 
1.17907 -6.65145 3.54311 0.734409 -5.86365 2.33836 0.346627 -0.510056 0.755035 
0.360542 -4.54176 1.16806 0.114349 -3.2998 0.527203 0.145167 -2.63208 0.510889 
0.0660962 -1.7648 0.502296 0.383396 -1.12019 1.22454 0.133901 -1.17163 0.774544 
1.87411 -6.90844 4.50991 0.275622 -0.0322614 0.434046 1.42913 -6.94135 3.91974 
0.915525 -6.32705 2.92689 0.530628 -5.2908 1.74676 0.193336 -3.88125 0.773788 
0.14124 -2.99911 0.509511 0.129547 -2.25443 0.511504 0.385417 -0.910244 1.13728 
0.058692 -1.40627 0.559667 0.26395 -1.18411 1.06077 0.224127 0.522802 0.120717 
2.07469 -6.22152 4.57579 1.59594 -7.04638 4.07132 1.15736 -6.71556 3.38163 
0.682376 -5.90435 2.30805 0.340323 -4.63677 1.21854 0.316909 -0.533639 0.861478 
0.138377 -3.41104 0.584391 0.174097 -2.69939 0.529325 0.0962235 -1.84925 0.50973 
0.363654 -1.17572 1.24797 0.112932 -1.22297 0.728531 0.154952 0.441199 0.139988 
0.225397 -1.23224 0.991568 0.0759751 -1.49868 0.54735 0.172132 -2.34063 0.535924 
0.17109 -3.09032 0.551793 1.34542 -6.99129 3.61721 0.889526 -6.40538 2.7966 
0.206757 -4.01838 0.832247 0.478925 -5.37554 1.71902 1.74048 -6.72743 4.1279 
0.367994 -0.961797 1.19558 0.222075 -0.0774594 0.515295 0.102058 -1.30082 0.671997 
0.319678 -1.23014 1.18527 0.14236 -1.95672 0.534186 0.213879 -2.78635 0.571921 
0.173078 -3.54987 0.647049 0.297749 -0.584368 0.952225 0.313254 -4.77421 1.20993 
0.642495 -6.00731 2.19082 1.09842 -6.80333 3.12154 1.45874 -6.98181 3.69379 
1.98853 -5.90296 4.39536 0.110717 0.369731 0.202898 0.18055 -1.27998 0.880639 
0.110492 -1.61579 0.553053 0.330501 -1.02982 1.17157 0.222843 -2.44216 0.586558 
0.214469 -3.2095 0.618883 0.216783 -4.19392 0.856244 0.435363 -5.51818 1.61585 
0.845802 -6.52095 2.57197 1.22071 -7.01536 3.26035 0.196576 -0.149917 0.629804 
1.61368 -6.48208 3.81836 0.106043 -1.39702 0.627987 0.257044 -1.27384 1.05365 
0.197691 -2.07877 0.588097 0.263581 -2.8982 0.64985 0.211855 -3.72388 0.70324 
0.289019 -4.96798 1.1416 0.269622 -0.66657 0.979892 0.602732 -6.15655 1.99231 
0.99603 -6.88581 2.79155 1.30915 -6.85068 3.32694 1.92753 -5.52202 4.39591 
0.0829142 0.29743 0.292673 0.142076 -1.32895 0.764536 0.157724 -1.74765 0.592322 
0.271459 -1.10127 1.06659 0.279358 -2.56525 0.677952 0.267235 -3.36222 0.705054 
0.226569 -4.42116 0.839531 0.401997 -5.71735 1.44953 0.768507 -6.64708 2.27281 
1.06778 -6.99234 2.88087 0.172146 -0.232413 0.69195 1.51755 -6.14035 3.66079 
0.127016 -1.50749 0.621477 0.188948 -1.30257 0.890355 0.257798 -2.2199 0.686663 
0.322305 -3.04218 0.765021 0.251878 -3.94647 0.74209 0.222184 -0.761777 0.921012 
0.275016 -5.21687 1.02436 0.85596 -6.94215 2.41961 0.550705 -6.33608 1.73421 
1.1723 -6.62387 3.0373 0.0611513 0.211706 0.368136 1.8743 -5.06053 4.47557 
0.121416 -1.38555 0.683241 0.212924 -1.89691 0.681466 0.199163 -1.15795 0.908077 
0.341255 -2.71937 0.817008 0.324409 -3.55793 0.797112 0.242651 -4.70274 0.789438 
0.372228 -5.95134 1.23861 0.902678 -6.89846 2.5167 0.657873 -6.77299 1.93294 
0.135021 -0.338853 0.67709 1.47452 -5.63998 3.71119 0.163315 -1.63617 0.673752 
0.131287 -1.32083 0.742797 0.320532 -2.39081 0.838652 0.386447 -3.22245 0.905314 
0.293609 -4.22159 0.761535 0.158928 -0.857883 0.795775 0.273239 -5.5052 0.880356 
0.475365 -6.51686 1.43835 0.695025 -6.951 2.05094 1.07411 -6.28043 2.89804 
0.0330107 0.0962335 0.38939 0.12394 -1.46046 0.669249 0.271779 -2.07438 0.829424 
1.79761 -4.57061 4.44059 0.12661 -1.19235 0.737946 0.406456 -2.90622 0.994118 
0.380439 -3.79771 0.880975 0.269442 -5.02161 0.725081 0.338189 -6.19432 1.00753 
0.518463 -6.86506 1.58237 0.785406 -6.60642 2.31365 0.0831983 -0.465243 0.591205 
1.29459 -5.37147 3.48444 0.096697 -1.34299 0.655557 0.209784 -1.79401 0.794546 
0.383388 -2.59322 1.03593 0.448011 -3.43165 1.04709 0.0889155 -0.938907 0.638521 
0.337828 -4.5304 0.769981 0.280835 -5.80347 0.735588 0.376351 -6.67571 1.13142 
0.541025 -6.84602 1.7552 -0.00736145 -0.0537736 0.342558 0.147217 -1.56766 0.738096 
0.798327 -6.0666 2.45225 0.0683699 -1.20792 0.603696 0.329531 -2.28346 1.02775 
0.467468 -3.10841 1.18076 1.69623 -4.18836 4.2154 0.429348 -4.06127 0.948087 
0.364624 -6.88778 1.25587 0.306506 -5.34371 0.668968 0.295261 -6.41638 0.779642 
0.0219764 -0.593883 0.460091 0.090154 -1.38927 0.658306 1.27363 -4.80929 3.52077 
0.258645 -1.98643 0.974069 0.42465 -6.58087 1.59323 0.439565 -2.80449 1.24823 
0.0245176 -0.992376 0.492292 0.495803 -3.64328 1.16384 0.26016 -6.78246 0.834757 
0.382612 -4.83405 0.779169 0.292937 -6.07526 0.612247 -0.0576084 -0.225138 0.242882 
0.754006 -5.56184 2.47837 0.181755 -1.7152 0.880222 0.0363035 -1.22197 0.548512 
0.378526 -2.5012 1.24527 0.212261 -6.8004 0.976048 0.51167 -3.28747 1.33798 
0.244334 -6.58759 0.574102 0.465528 -4.31001 0.994541 0.348589 -5.62783 0.636512 
1.56267 -3.87515 3.81849 -0.0387549 -0.702249 0.322465 0.318372 -6.20726 1.47446 
0.105504 -1.47575 0.750532 0.299416 -2.19314 1.17893 1.21152 -4.32451 3.35684 
0.138868 -6.80352 0.569046 0.477269 -2.97555 1.43069 -0.0207944 -1.0196 0.403616 
0.520147 -3.81862 1.235 0.303608 -6.28486 0.522314 0.423077 -5.08958 0.79395 
-0.109201 -0.391461 0.126767 0.725884 -4.99736 2.48676 0.032039 -1.25801 0.589199 
0.0751879 -6.57287 0.759416 0.213436 -1.88789 1.05932 0.407405 -2.67367 1.43483 
0.527379 -3.40106 1.43153 0.187849 -6.67502 0.404504 0.485884 -4.50134 1.01822 
0.386315 -5.83734 0.626944 1.4053 -3.62022 3.3095 -0.0857308 -0.774392 0.226759 
0.262565 -5.67009 1.46973 0.127332 -1.59767 0.897071 0.318844 -2.35796 1.35866 
-0.0393547 -1.03777 0.402439 0.0236282 -6.68962 0.361873 1.12148 -3.90841 3.02192 
0.486066 -3.05762 1.54265 0.518399 -3.9258 1.25201 0.301938 -6.40053 0.457892 
0.453482 -5.25854 0.809284 0.706682 -4.41528 2.40455 -0.148436 -0.526406 0.0474746 
-0.0188351 -6.13366 0.67489 0.0445085 -1.32899 0.702926 0.223869 -2.02473 1.21567 
0.408523 -2.75001 1.55529 0.51105 -3.42448 1.44668 0.116029 -6.62615 0.269294 
0.490848 -4.60879 1.01667 0.407961 -5.93581 0.623439 1.23046 -3.39752 2.73624 
-0.10643 -0.815541 0.219432 0.252956 -4.99942 1.50586 -0.0341249 -1.07572 0.485726 
0.312075 -2.43537 1.47502 0.128785 -1.68352 1.01912 0.462257 -3.02472 1.56489 
-0.0840822 -6.31962 0.260054 0.495878 -3.95342 1.21847 0.467924 -5.32013 0.811149 
0.274313 -6.37212 0.396034 1.00555 -3.55223 2.53938 0.668572 -3.91307 2.16514 
-0.15856 -0.62341 0.0680895 -0.0242628 -5.31161 0.814376 0.210764 -2.09251 1.31645 
0.379466 -2.6989 1.58642 0.468891 -3.36308 1.38855 0.0349285 -1.3408 0.774007 
0.482328 -4.62179 0.987695 0.0240233 -6.35104 0.163091 0.400458 -5.90101 0.597055 
1.04101 -3.18454 2.12533 -0.0721555 -0.94887 0.4103 0.367469 -4.05531 1.61091 
0.277381 -2.38902 1.50792 0.41119 -2.88943 1.50051 0.11151 -1.7207 1.09376 
0.460835 -3.90713 1.14392 -0.152595 -5.63266 0.277896 0.459303 -5.26353 0.781278 
0.206017 -6.1534 0.30514 0.791015 -3.35051 1.96199 -0.138638 -0.698479 0.192742 
0.0134689 -1.31138 0.796528 0.326726 -2.53258 1.5307 0.0316769 -4.40207 0.92602 
0.170596 -2.04584 1.3362 0.412141 -3.23985 1.27413 0.458917 -4.54151 0.925257 
0.354193 -5.71188 0.521438 -0.084817 -5.77368 0.0847698 0.867552 -2.99793 1.58213 
-0.0606752 -0.998355 0.531223 0.42777 -3.45266 1.4133 0.225395 -2.23588 1.46574 
0.0666828 -1.6387 1.07361 0.343173 -2.68794 1.36619 0.417535 -3.79395 1.03612 
0.419775 -5.08828 0.700086 -0.159208 -4.67893 0.373103 0.101772 -5.70834 0.176808 
0.675643 -3.09326 1.4397 0.122178 -1.92975 1.30475 0.258935 -2.28625 1.40078 
-0.108224 -0.796623 0.380427 0.139741 -3.53664 0.882408 0.34977 -3.0767 1.12115 
0.415164 -4.36705 0.821461 0.267008 -5.36159 0.380433 -0.0255561 -1.22249 0.77146 
-0.170687 -4.97328 0.032514 0.682271 -2.80138 1.02245 0.460334 -2.98121 0.95884 
0.0310517 -1.58591 1.07169 0.165943 -2.00336 1.36051 0.268235 -2.45889 1.1815 
0.362891 -3.61157 0.896798 0.347817 -4.79341 0.559734 -0.133254 -3.84083 0.328149 
-0.0214873 -5.05634 0.0149467 0.0751043 -1.75946 1.23943 -0.0951451 -0.893873 0.52657 
0.183344 -2.00225 1.20931 0.136109 -3.06114 0.509712 0.281801 -2.87053 0.940836 
0.346974 -4.1012 0.670707 0.157157 -4.86546 0.187685 -0.0450089 -1.24507 0.827673 
-0.224477 -4.1121 -0.0581136 0.520768 -2.63244 0.551649 -0.00374165 -1.49781 1.05549 
0.345103 -2.75174 0.431449 0.100904 -1.7067 1.1887 0.188603 -2.20462 0.965688 
0.252462 -4.39294 0.36559 -0.121456 -4.34693 -0.166476 0.291216 -3.36118 0.722596 
-0.110769 -3.16379 0.0681621 0.023749 -1.49797 1.10821 -0.101612 -0.971883 0.633631 
0.0984872 -1.68653 0.973301 -0.262155 -3.47768 -0.287375 0.0503783 -4.29008 -0.0373754 
0.257128 -3.761 0.47179 0.20357 -2.61787 0.73673 -0.0735959 -1.20097 0.844693 
0.130002 -2.67073 -0.00687866 0.343245 -2.45437 0.0518964 -0.0430249 -1.30518 0.973966 
0.0197071 -1.34619 0.954429 -0.164128 -2.81484 -0.349415 -0.1945 -3.72298 -0.399711 
0.147494 -3.92681 0.123641 0.103601 -1.92664 0.731857 0.202286 -3.05634 0.513893 
-0.0483576 -1.13434 0.890215 -0.121433 -0.958328 0.67902 0.187548 -2.3107 -0.372633 
-0.00227814 -2.49259 -0.492493 -0.315246 -3.03935 -0.639085 0.00959927 -1.36019 0.718667 
-0.0517558 -3.71163 -0.313132 0.157877 -3.37201 0.235538 0.114345 -2.33472 0.513012 
-0.0977535 -1.04168 0.805115 -0.264182 -2.58161 -0.82522 -0.0640075 -0.981997 0.702553 
0.0500744 -3.4588 -0.150542 -0.282596 -3.16643 -0.746345 0.0162983 -1.65794 0.489973 
0.104014 -2.70556 0.282923 -0.112515 -0.817894 0.683866 0.0193054 -2.17496 -0.817952 
-0.15321 -2.33665 -0.97489 -0.140815 -0.798822 0.630737 -0.0723614 -1.08686 0.463407 
0.0679181 -2.97643 -0.010577 -0.149409 -3.21394 -0.644113 -0.391452 -2.61561 -1.12401 
0.0158144 -2.01333 0.276721 -0.131056 -0.705251 0.461021 -0.0258898 -3.05019 -0.422132 
-0.387005 -2.73009 -1.19139 0.0115828 -2.34695 0.0455824 -0.334497 -2.28018 -1.37493 
-0.0781 -1.36 0.247728 -0.159897 -0.531039 0.453011 -0.162195 -0.554834 0.493149 
-0.16414 -2.05668 -1.28679 -0.225279 -2.85368 -0.967748 -0.00386029 -2.62395 -0.256823 
-0.158709 -0.79278 0.21704 -0.0792958 -1.67602 0.0432839 -0.47093 -2.28289 -1.65457 
-0.205911 -0.40244 0.206203 -0.0961864 -2.71528 -0.7189 -0.457963 -2.489 -1.55713 
-0.336705 -1.97521 -1.71025 -0.0603702 -2.02489 -0.180833 -0.207427 -0.264744 0.251322 
-0.168951 -1.04515 0.0248264 -0.0569299 -2.35079 -0.504271 -0.324033 -2.5421 -1.36226 
-0.558211 -2.16521 -1.9962 -0.239961 -0.467468 0.00723389 -0.152481 -1.36984 -0.16767 
-0.490156 -1.92923 -2.06955 -0.263973 -0.119806 0.00927121 -0.177185 -2.44384 -1.0591 
-0.561174 -2.2236 -2.01584 -0.0998364 -1.8095 -0.396532 -0.244224 -0.688193 -0.132602 
-0.101201 -2.15133 -0.761123 -0.62912 -1.91787 -2.37771 -0.453784 -2.25478 -1.82687 
-0.300704 -0.185144 -0.164348 -0.220393 -0.938112 -0.263955 -0.156959 -1.33918 -0.407847 
-0.284005 -2.21104 -1.44622 -0.113259 -1.71272 -0.651531 -0.668143 -1.95038 -2.45388 
-0.288233 -0.44055 -0.273793 -0.160102 -2.00801 -1.0608 -0.5572 -1.99406 -2.19624 
-0.214472 -0.861657 -0.396666 -0.331902 -1.95608 -1.63118 -0.137129 -1.31878 -0.605762 
-0.150043 -1.71667 -0.996472 
