# vtk DataFile Version 3.0
vtk output
ASCII
DATASET POLYDATA
POINTS 724 float
10.6957 -11.2553 11.827 11.0284 -12.0563 11.8109 10.416 -10.5024 11.9422 
11.385 -12.8321 11.8249 10.223 -9.90261 12.1713 10.5885 -10.8984 12.1315 
11.7363 -13.5053 11.8288 10.0844 -9.37046 12.526 10.8531 -11.5488 12.1334 
10.4011 -10.3604 12.3298 11.151 -12.2223 12.1716 11.4783 -12.9023 12.1731 
12.023 -13.9977 11.8379 10.253 -9.86847 12.5931 10.0054 -8.88702 12.9889 
10.641 -10.9743 12.4319 11.765 -13.4144 12.2481 10.9221 -11.658 12.471 
10.1495 -9.40311 12.972 10.4465 -10.401 12.6815 12.2687 -14.3806 11.8773 
9.99952 -8.43013 13.5327 11.2833 -12.4569 12.5217 12.0668 -13.8977 12.2718 
10.0889 -8.91417 13.4324 10.3095 -9.88102 13.0307 10.6663 -10.9795 12.7605 
11.657 -13.1759 12.6262 12.4844 -14.6859 11.9635 10.9269 -11.6267 12.8063 
10.0538 -8.08548 14.0223 10.2174 -9.335 13.4979 10.492 -10.4005 13.0862 
12.3349 -14.2758 12.3204 10.1405 -8.66384 13.9425 11.2339 -12.316 12.898 
12.0352 -13.7905 12.6897 10.6924 -10.9478 13.1439 10.3776 -9.83834 13.5265 
10.1547 -7.76691 14.5733 12.6857 -14.9394 12.1108 12.5772 -14.5906 12.3883 
11.5987 -13.0365 13.0232 10.1783 -8.23724 14.4172 10.9185 -11.525 13.2061 
10.29 -9.18322 14.0185 10.5563 -10.3654 13.5671 12.3912 -14.2745 12.7361 
11.196 -12.1601 13.3187 10.2757 -8.63089 14.487 10.4671 -9.74112 14.0776 
10.7443 -10.8935 13.6214 12.0186 -13.7299 13.1072 12.8501 -15.1182 12.2934 
10.2669 -7.85511 14.9525 10.287 -7.43812 15.2049 12.7308 -14.7114 12.6607 
10.9517 -11.4321 13.6955 11.555 -12.8842 13.4588 10.4198 -9.09638 14.5847 
10.6564 -10.3037 14.1412 12.4518 -14.3085 13.1088 10.3253 -8.13677 15.0072 
12.9362 -14.9492 12.7701 11.2058 -12.0188 13.814 10.846 -10.8392 14.2106 
10.6027 -9.64614 14.6911 12.0154 -13.6624 13.5522 10.4152 -8.4775 15.0715 
10.3916 -7.56687 15.5377 10.4222 -7.08102 15.8443 13.0279 -15.2749 12.566 
12.7402 -14.6259 13.1673 11.0436 -11.3526 14.295 11.5449 -12.7146 13.9519 
10.802 -10.2274 14.8009 10.5563 -8.91587 15.1723 10.4456 -7.85649 15.5809 
12.4348 -14.2133 13.6503 12.9727 -14.8518 13.284 10.566 -6.64976 16.5111 
10.5169 -7.25264 16.1224 13.1341 -15.0978 13.1136 11.2737 -11.8864 14.4032 
10.9955 -10.7696 14.8994 10.7483 -9.46705 15.3207 10.5329 -8.21257 15.6216 
11.9683 -13.442 14.1049 13.2028 -15.3862 12.9254 12.7854 -14.5762 13.7687 
10.5635 -7.59267 16.1201 11.1842 -11.2585 14.989 10.679 -8.65325 15.7221 
10.9606 -10.0749 15.4853 11.5644 -12.4787 14.5441 12.4316 -14.066 14.2615 
10.6538 -6.68729 16.8041 13.1015 -14.8815 13.7699 10.778 -5.98118 17.4123 
10.653 -7.95725 16.1457 13.2935 -15.1371 13.6065 10.8835 -9.20958 15.9048 
11.159 -10.6302 15.6195 11.3874 -11.7263 15.0879 10.6548 -7.00769 16.7127 
11.9532 -13.1634 14.7108 13.3615 -15.4459 13.3462 12.8783 -14.544 14.3403 
10.8043 -8.38747 16.2466 10.6896 -7.33644 16.6631 11.1067 -9.83046 16.1251 
11.3403 -11.0992 15.7194 11.6341 -12.2338 15.1995 12.4567 -13.8877 14.866 
13.2118 -14.8577 14.3305 10.8256 -6.17257 17.5436 11.0185 -5.18578 18.4027 
10.7789 -7.69129 16.6706 13.4241 -15.1091 14.1973 11.0115 -8.91349 16.4495 
11.3072 -10.3932 16.2998 11.5211 -11.5245 15.7989 10.7892 -6.61681 17.3263 
13.5026 -15.4622 13.8141 11.9728 -12.8614 15.3227 12.9232 -14.4063 14.9704 
11.0722 -5.24504 18.5977 10.9292 -8.08675 16.7735 10.8102 -7.00042 17.2129 
11.2339 -9.50945 16.7029 11.482 -10.8552 16.4107 11.7282 -11.9723 15.8652 
13.2597 -14.7235 14.996 12.4219 -13.5524 15.4823 10.9804 -5.75873 18.2169 
13.5678 -15.18 14.553 11.3409 -4.1822 19.7268 10.8984 -7.34067 17.2177 
11.1294 -8.56853 16.9752 11.4304 -10.0642 16.9072 11.6466 -11.2604 16.4751 
12.8689 -14.0925 15.6349 10.9226 -6.24128 17.9203 11.9972 -12.493 15.9507 
13.4668 -14.8828 15.1151 13.6503 -15.4343 14.4363 11.315 -4.50089 19.6277 
11.0439 -7.71684 17.3099 11.3422 -9.12258 17.2325 10.9428 -6.58135 17.8217 
11.5994 -10.5248 17.0315 13.1899 -14.3947 15.7721 11.823 -11.6583 16.5222 
12.3563 -13.0875 16.0928 11.1286 -5.28175 18.8982 13.6558 -15.052 15.2591 
11.7261 -3.29336 21.0319 11.2348 -8.1673 17.4956 11.021 -6.91631 17.8038 
11.531 -9.65803 17.4495 13.4408 -14.6172 15.8546 11.7546 -10.9183 17.102 
12.0385 -12.0929 16.5852 12.7513 -13.6144 16.287 11.0801 -5.69466 18.6515 
13.7641 -15.3642 15.0671 11.4118 -4.34319 20.0516 11.7494 -3.4656 21.136 
11.1563 -7.28757 17.8697 11.4356 -8.68505 17.7374 11.6948 -10.1142 17.5897 
11.0875 -6.05538 18.5063 11.9146 -11.2884 17.1521 13.1084 -14.0126 16.4471 
12.3186 -12.5843 16.7043 13.5997 -14.7242 16.0239 11.3173 -4.73127 19.7379 
13.7544 -14.9878 15.847 12.123 -2.17158 22.3761 11.3354 -7.72371 18.0282 
11.6154 -9.19726 17.9525 11.1506 -6.41574 18.4388 11.8473 -10.5045 17.6779 
12.1005 -11.6729 17.2151 12.6675 -13.1168 16.8776 13.3608 -14.2407 16.6001 
11.2621 -5.10788 19.4697 13.8511 -15.2442 15.7567 11.702 -3.7222 21.0738 
11.5245 -8.22008 18.2457 11.2717 -6.80549 18.4612 11.7751 -9.64671 18.1047 
12.003 -10.8656 17.7474 12.0849 -2.60257 22.2935 11.254 -5.4866 19.2611 
13.6016 -14.5132 16.6089 12.3369 -12.1171 17.3132 13.0075 -13.55 17.0663 
11.5782 -4.13416 20.7092 13.7779 -14.794 16.4939 12.4087 -1.08811 23.4935 
11.4398 -7.25258 18.5829 11.6951 -8.71441 18.449 11.2987 -5.87895 19.1272 
11.9279 -10.0387 18.213 12.1801 -11.2398 17.8226 12.632 -12.6141 17.4681 
11.4928 -4.53452 20.3619 13.3261 -13.9445 17.1559 11.9862 -3.07703 22.0445 
13.8951 -15.0981 16.3692 11.6198 -7.7495 18.7739 11.4032 -6.30526 19.0882 
11.8496 -9.15755 18.6034 13.5822 -14.2795 17.1412 12.0876 -10.4076 18.3056 
11.458 -4.93863 20.0707 12.3393 -1.70835 23.277 12.3968 -11.6626 17.9283 
12.9761 -13.1603 17.6105 11.8574 -3.59501 21.6316 13.776 -14.5998 17.0363 
12.6841 -0.311066 24.4398 11.559 -6.77953 19.1637 11.7832 -8.24129 18.9614 
11.4776 -5.37055 19.8503 12.0021 -9.55507 18.7233 11.7599 -4.06191 21.2262 
12.2686 -10.7897 18.4074 13.2983 -13.643 17.6675 12.6716 -12.1921 18.055 
12.2236 -2.36729 22.9141 13.909 -14.9378 16.9066 11.5619 -5.82971 19.7455 
11.7314 -7.29676 19.3242 11.7013 -4.51935 20.8505 11.9317 -8.68534 19.1091 
13.5612 -14.0434 17.6263 12.1671 -9.93702 18.8354 12.1015 -3.04214 22.4531 
12.489 -11.2424 18.5287 12.5774 -0.993335 24.1209 12.9892 -12.7899 18.1598 
13.762 -14.4025 17.5187 11.7014 -4.96473 20.5794 11.7018 -6.33552 19.7673 
12.0026 -3.68552 21.9561 11.8897 -7.80367 19.4947 12.9442 0.329501 25.2142 
12.0815 -9.0898 19.229 12.3599 -10.3495 18.9606 13.2934 -13.3414 18.1744 
12.4341 -1.74474 23.6528 12.7569 -11.8042 18.6612 13.9049 -14.7684 17.3871 
12.2786 -2.65887 23.028 11.96 -4.19636 21.5788 11.7624 -5.43557 20.4225 
11.865 -6.88275 19.8901 13.5472 -13.7986 18.1003 12.0336 -8.25842 19.6314 
12.2489 -9.49081 19.3462 12.5954 -10.8409 19.1168 13.0497 -12.4398 18.7426 
12.8036 -0.48592 24.8031 13.7452 -14.1953 17.9785 12.5582 -1.58014 24.0107 
12.2197 -3.33668 22.6022 11.96 -4.66212 21.2943 11.8786 -5.95893 20.3902 
12.0202 -7.41534 20.0414 12.1787 -8.67463 19.7416 13.3217 -13.0368 18.7124 
13.1708 1.01309 25.8294 12.4514 -9.93203 19.4894 12.8725 -11.4443 19.2833 
13.8924 -14.5893 17.835 12.8393 -0.673831 24.86 12.4647 -2.31368 23.571 
12.2085 -3.90304 22.2615 12.0027 -5.14071 21.1047 13.5511 -13.5399 18.5961 
12.0255 -6.52695 20.4686 12.1612 -7.88903 20.166 12.3436 -9.09012 19.8528 
13.1517 -12.1097 19.3659 12.7048 -10.464 19.6841 13.0981 0.388138 25.6262 
13.7357 -13.9723 18.4475 12.43 -2.98453 23.209 12.7471 -1.32703 24.4876 
12.2232 -4.41424 21.9834 12.0907 -5.6674 21.0264 12.1745 -7.08072 20.5944 
12.3014 -8.31773 20.2643 13.3899 -12.7308 19.3012 12.5489 -9.55244 20.0007 
13 -11.1131 19.9002 13.4095 1.87901 26.4096 13.8796 -14.3987 18.2733 
13.0329 -0.274854 25.3556 12.437 -3.60502 22.8983 12.6775 -1.98489 24.1174 
12.2606 -4.91643 21.7781 13.5848 -13.2648 19.1405 12.2137 -6.23718 21.0592 
12.3138 -7.57148 20.7062 12.4601 -8.74335 20.3631 13.2776 -11.8019 20.0072 
12.8135 -10.1182 20.2203 13.2856 0.974596 26.1062 13.7442 -13.7269 18.9571 
12.9604 -0.969988 25.0034 12.6454 -2.65307 23.7791 12.4683 -4.17678 22.6345 
12.3269 -5.44575 21.6682 12.3512 -6.79477 21.1543 12.4505 -8.01175 20.7938 
13.4921 -12.4287 19.9325 12.6601 -9.21773 20.5023 13.1231 -10.8073 20.4786 
13.874 -14.1942 18.7222 13.6303 2.74685 26.8972 13.203 0.157952 25.7829 
12.9016 -1.65356 24.647 12.6543 -3.31399 23.4842 13.6535 -12.9746 19.7434 
12.5125 -4.71879 22.4304 12.4253 -6.00354 21.6631 12.4879 -7.29271 21.2515 
12.6019 -8.44394 20.8795 13.4038 -11.5124 20.6219 12.9226 -9.8023 20.7222 
13.4633 1.62331 26.5414 13.7816 -13.4539 19.5318 13.1479 -0.604075 25.4473 
12.8681 -2.34668 24.313 12.6933 -3.94 23.2378 12.5708 -5.25875 22.3079 
12.5479 -6.54734 21.7285 12.6224 -7.73969 21.3302 13.6069 -12.1328 20.5671 
12.7901 -8.92199 21.0001 13.2325 -10.5127 20.9964 13.8824 -13.976 19.1917 
13.8277 3.54443 27.3243 13.3533 0.648677 26.1682 13.1099 -1.33416 25.1159 
12.8701 -3.04371 24.0232 12.7475 -4.52434 23.0487 13.7467 -12.6735 20.3828 
12.6528 -5.80231 22.2812 12.6799 -7.03879 21.8102 12.7665 -8.17517 21.4034 
13.5114 -11.2248 21.1707 13.0355 -9.50599 21.1967 13.9077 -13.7473 19.6754 
13.3275 -10.2124 21.4555 12.9386 -8.64919 21.5015 12.8124 -7.4845 21.881 
12.7622 -6.32387 22.3263 13.3028 -0.206157 25.8307 13.0866 -2.066 24.7992 
12.8094 -5.07902 22.9349 12.9072 -3.71399 23.7909 13.6384 2.30344 26.9613 
13.7094 -11.8327 21.158 13.8493 -13.1529 20.1729 13.1563 -9.21628 21.6603 
13.5951 -10.921 21.645 12.9496 -7.91796 21.9435 12.8877 -6.79936 22.3965 
12.8875 -5.61147 22.9089 13.8396 -12.3508 21.0196 12.9664 -4.33313 23.6248 
13.0869 -2.80106 24.52 13.2866 -0.997288 25.5241 13.4953 1.19085 26.5368 
14.0055 4.2641 27.756 13.9498 -13.4894 20.2036 13.4147 -9.89591 21.8784 
13.1041 -8.3824 22.0191 13.7884 -11.5175 21.6806 13.017 -7.23607 22.4612 
12.9901 -6.11195 22.9519 13.0371 -4.89951 23.5375 13.1174 -3.50854 24.3021 
13.2856 -1.77951 25.2379 13.4327 0.227841 26.1752 13.9283 -12.7954 20.8631 
13.8115 2.99606 27.3824 13.2891 -8.92356 22.1354 13.6598 -10.5891 22.0629 
13.1476 -7.66183 22.5159 13.1107 -6.56956 23.0229 13.1215 -5.42412 23.5351 
[...]
POINT_DATA 724
VECTORS velocity double
0.0816695 -0.0178735 -0.383601 0.115608 -0.0478253 -0.367985 -0.0278846 0.0818995 -0.340248 
0.0421742 0.0137101 -0.269088 -0.117484 0.150157 -0.311248 0.00596562 -0.00889878 -0.34872 
-0.0313544 0.0363275 -0.184036 -0.167059 0.166175 -0.314568 0.0679703 -0.0944982 -0.361787 
-0.0769125 0.0639726 -0.30926 0.0561281 -0.098247 -0.318047 -0.0244419 -0.0234055 -0.228993 
-0.0316256 -0.0308532 -0.178627 -0.135184 0.110825 -0.286013 -0.175541 0.134389 -0.348397 
-0.00635423 -0.0679868 -0.308112 -0.0950684 0.00290395 -0.163018 0.0449394 -0.161137 -0.300307 
-0.15674 0.109915 -0.286799 -0.0818367 0.00692713 -0.256451 0.0119332 -0.135622 -0.22351 
-0.163489 0.0843751 -0.397409 0.00169679 -0.128426 -0.226233 -0.103529 -0.0426481 -0.159705 
-0.147426 0.0731128 -0.324492 -0.123614 0.0447819 -0.221982 -0.0143338 -0.124927 -0.234773 
-0.106896 -0.031252 -0.116029 0.0691044 -0.238065 -0.288221 0.034702 -0.220718 -0.214879 
-0.157518 0.0602812 -0.42554 -0.12261 0.0321949 -0.234117 -0.0719776 -0.0605185 -0.164931 
-0.0583481 -0.137818 -0.20484 -0.115974 0.0139823 -0.332251 0.00863034 -0.204526 -0.141862 
-0.14934 -0.0215838 -0.0870666 -0.00854069 -0.187486 -0.125799 -0.0904467 -0.033495 -0.129562 
-0.16156 0.0700177 -0.423977 0.126358 -0.322421 -0.353941 0.0134654 -0.238876 -0.269558 
-0.0943993 -0.074922 -0.0267101 -0.110802 -0.000118323 -0.37259 0.041671 -0.28575 -0.0925726 
-0.0789773 -0.0395998 -0.196543 -0.042151 -0.136363 -0.0420817 -0.091428 -0.119374 -0.145464 
0.0399923 -0.289142 -0.0230301 -0.0670015 -0.057256 -0.281618 -0.044658 -0.105999 -0.0460743 
0.0178522 -0.257505 0.0154284 -0.161623 0.00522461 0.0182677 0.170192 -0.371887 -0.396879 
-0.120995 0.0264969 -0.37387 -0.178233 0.131253 -0.391564 0.0367882 -0.268298 -0.270359 
0.0720402 -0.356136 0.0570193 -0.0469734 -0.138935 0.0855672 -0.030444 -0.108337 -0.150215 
0.000988881 -0.202453 0.0724437 -0.0949475 -0.0868688 -0.066819 -0.0751426 -0.0394978 -0.323144 
0.114282 -0.328641 -0.316679 0.0912312 -0.372885 0.111918 0.059649 -0.316155 0.13929 
-0.00355867 -0.154348 -0.00313399 -0.142657 0.0293191 0.139171 -0.03249 -0.100644 -0.24936 
-0.131462 0.080299 -0.339698 -0.205989 0.241199 -0.352574 0.211595 -0.39603 -0.413521 
-0.000659324 -0.182027 -0.138024 0.116993 -0.410138 0.172184 0.0294507 -0.225565 0.189812 
0.0296436 -0.219113 0.102993 -0.000911941 -0.144458 -0.146474 -0.0777828 -0.00880579 -0.297564 
-0.100764 0.0057655 0.0935791 0.0837905 -0.240946 -0.175093 -0.227389 0.355843 -0.312628 
-0.153155 0.171859 -0.308504 0.16758 -0.326256 -0.28231 0.149541 -0.437018 0.195123 
0.0813323 -0.310988 0.145015 0.00787516 -0.152939 -0.0404205 -0.0277634 -0.0930908 -0.240285 
-0.0747351 0.00233732 0.248291 0.246643 -0.383071 -0.378459 0.00295355 -0.0816282 0.0300056 
-0.0923592 0.0540816 -0.273433 0.137996 -0.398674 0.148636 0.00441085 -0.145901 -0.167314 
0.011739 -0.155747 0.0127189 0.123076 -0.337381 0.223393 -0.0741105 0.065489 0.220413 
-0.19246 0.318949 -0.279877 0.116892 -0.186298 -0.058382 -0.200636 0.376054 -0.215225 
-0.0394744 -0.0501953 -0.229865 0.200825 -0.272054 -0.16449 -0.00355104 -0.127048 -0.108667 
0.044068 -0.207374 0.00960292 0.17805 -0.443348 0.138051 -0.152741 0.22897 -0.271464 
0.0244346 -0.105399 0.2493 0.276971 -0.340742 -0.288848 0.0375606 -0.0345767 0.133426 
-0.00765434 -0.116611 -0.182375 -0.105985 0.123917 -0.251278 -0.0362231 -0.0601026 -0.107987 
0.0938546 -0.286944 -0.0110904 0.177259 -0.405173 0.128386 -0.0313271 0.0468179 0.22664 
0.151274 -0.143457 0.054149 -0.165363 0.328045 -0.199212 -0.153534 0.32318 -0.0704904 
-0.0600882 0.0184614 -0.221965 0.232509 -0.219193 -0.0240324 -0.0234667 -0.0939312 -0.159116 
-0.0352333 -0.0526547 -0.137109 0.138046 -0.35389 -0.0291966 -0.14662 0.277235 -0.224744 
0.307665 -0.293518 -0.168692 0.103222 -0.235101 0.130482 0.0562471 -0.0285073 0.162152 
-0.125934 0.303765 -0.0475364 -0.0321884 -0.0546443 -0.193434 -0.114949 0.193598 -0.225168 
-0.0779057 0.0103749 -0.18044 -0.000533624 -0.109309 -0.155767 0.158999 -0.376978 -0.0366891 
0.163085 -0.135485 0.111622 0.0110049 -0.0441109 0.124678 -0.117758 0.279702 -0.102163 
0.28553 -0.235847 0.014953 -0.140652 0.451851 0.0696973 -0.081101 0.104661 -0.210638 
-0.0454829 -0.0496092 -0.185646 -0.1055 0.0730733 -0.204395 0.0428268 -0.183937 -0.159125 
0.0374529 -0.0489373 0.100858 -0.112741 0.260634 -0.15095 0.129558 -0.310191 -0.0324889 
0.232189 -0.204036 0.0849679 0.34817 -0.271545 -0.0358245 -0.113668 0.40907 0.0526563 
-0.057586 0.029768 -0.19514 -0.0988012 0.044456 -0.203397 -0.0977908 0.219532 -0.166754 
-0.091386 0.0565544 -0.204136 0.114288 -0.135805 0.0799991 0.0768385 -0.242337 -0.151596 
0.0489665 -0.1585 -0.0167974 -0.0906223 0.285987 -0.0161802 0.301551 -0.269236 0.0644916 
-0.0987246 0.477079 0.229661 -0.0640896 0.00947685 -0.192886 -0.078584 0.161152 -0.170111 
-0.138832 0.129518 -0.20928 0.189991 -0.217462 0.0702974 -0.0590513 0.00309905 -0.188478 
0.0833174 -0.251026 -0.133256 0.00996956 -0.0758027 0.0065507 -0.0741292 0.242865 -0.0476178 
0.381059 -0.307586 0.0334805 -0.094973 0.440699 0.0828228 -0.0732474 0.464192 0.206325 
-0.0634291 0.0996617 -0.1696 -0.104187 0.0644007 -0.203153 -0.142162 0.14966 -0.188888 
-0.0603663 0.208492 -0.0713486 -0.0254601 -0.0539001 -0.164496 0.0495179 -0.107858 0.0386144 
0.0465339 -0.18061 -0.0971293 0.233797 -0.270203 0.0650408 -0.0776348 0.377216 0.0537368 
0.313635 -0.324321 0.0623256 -0.00458717 0.33049 0.365562 -0.0680378 0.0672287 -0.176836 
-0.141437 0.133239 -0.196383 -0.0474372 0.168891 -0.0890141 -0.123864 0.128637 -0.15521 
-0.00316175 -0.0885542 -0.130949 -0.0046341 -0.0740011 -0.0305895 0.103524 -0.163935 0.0665306 
-0.0571893 0.30692 0.0335768 0.388264 -0.369446 0.0558848 -0.0600426 0.459289 0.168586 
-0.0984119 0.0866954 -0.191409 -0.0388564 0.124851 -0.104427 -0.152144 0.16338 -0.163242 
-0.0979572 0.0941856 -0.115641 0.0137084 0.359959 0.310515 -0.0354355 0.240571 0.0169894 
0.181292 -0.241676 0.0849906 -0.00384587 -0.0747066 -0.0798156 -0.00551732 -0.037337 0.0522093 
-0.0600375 0.452309 0.117186 0.26611 -0.317494 0.0847317 -0.102964 0.272091 0.0912617 
-0.0464171 0.0956306 -0.127963 -0.129985 0.124026 -0.188077 -0.0155407 0.181611 0.000341326 
-0.142564 0.160733 -0.116801 -0.0726783 0.0654096 -0.0699221 -0.0274699 -0.00421231 0.000825407 
-0.0501211 0.409566 0.0843225 0.0485438 -0.0845489 0.121261 0.0116456 0.379033 0.253593 
0.357376 -0.386275 0.080064 -0.0767341 0.100498 -0.161205 -0.00307994 0.130753 -0.0212136 
-0.14204 0.140219 -0.156192 0.124424 -0.167742 0.151666 -0.122263 0.14354 -0.0658843 
-0.030806 0.337644 0.0657533 -0.00498681 0.303171 0.185402 -0.0566112 0.0645518 -0.0142366 
-0.0316372 0.0452427 0.109059 -0.00774939 0.401691 0.183677 0.209674 -0.259171 0.149916 
-0.266867 0.423722 -0.313725 -0.00957946 0.0989172 -0.057541 -0.110292 0.117564 -0.179324 
-0.00597079 0.251162 0.0532276 -0.135793 0.133852 -0.106892 -0.0201088 0.408162 0.125725 
-0.0976611 0.127942 -0.0143302 0.0130026 0.00584681 0.199905 -0.0531455 0.102839 0.058701 
0.0531135 0.324739 0.244697 0.305492 -0.348974 0.13713 0.014905 0.170854 0.0364021 
-0.0429214 0.0980004 -0.112825 -0.0185645 0.379324 0.0878811 -0.126821 0.117798 -0.165703 
0.0826085 -0.0828336 0.241148 -0.117288 0.11612 -0.0513467 0.0564877 0.330084 0.229952 
-0.0747791 0.133369 0.0338481 -0.139424 0.360365 -0.123004 -0.0432983 0.13221 0.159314 
0.161306 -0.182013 0.241316 -0.00406936 0.313682 0.0674503 0.0157424 0.114898 -0.000932168 
0.0321314 0.333646 0.162512 -0.0846922 0.107982 -0.160546 -0.266926 0.535755 -0.367763 
-0.124852 0.0992362 -0.127604 -0.0912978 0.101734 0.000982403 -0.00164325 0.0846565 0.262179 
0.00402571 0.324417 0.083348 -0.0592853 0.172187 0.0798229 0.251749 -0.282906 0.221641 
0.0850922 0.300698 0.204998 0.0154493 0.326922 0.104186 0.0132209 0.229453 0.049812 
-0.0162699 0.0967586 -0.0675944 0.0593209 -0.00888611 0.32193 -0.111061 0.101708 -0.175491 
-0.108433 0.070791 -0.0767017 -0.0644836 0.114685 0.0341466 -0.0392765 0.1925 0.155556 
-0.204725 0.443328 -0.268082 0.127649 -0.110098 0.334557 -0.0206859 0.341051 -0.00243753 
0.0849117 0.263222 0.184974 0.0096611 0.296781 0.064886 0.015856 0.153814 0.0155152 
-0.0646958 0.0976449 -0.137226 -0.117515 0.0767322 -0.159653 0.00164842 0.135331 0.268942 
-0.190652 0.556019 -0.230394 -0.081108 0.0473644 -0.0272116 -0.0444763 0.169587 0.0414148 
0.207348 -0.213811 0.316026 -0.157479 0.424625 -0.201938 0.0820063 0.295802 0.132695 
0.0655103 0.230769 0.12922 0.00909973 0.241954 0.0349858 0.054272 0.0385493 0.361382 
-0.0132229 0.11228 -0.0487367 -0.10099 0.0880588 -0.177338 -0.106714 0.041308 -0.123528 
-0.0216853 0.199336 0.0820107 -0.0497261 0.0597007 -0.00524889 -0.176328 0.507397 -0.224049 
0.111046 -0.0603721 0.403766 0.118258 0.227658 0.176623 -0.0526324 0.364988 -0.0676357 
0.0419474 0.207311 0.0732869 0.000350824 0.178385 -0.00146813 -0.0628713 0.0965643 -0.122506 
-0.116647 0.0628082 -0.184591 0.0170346 0.143772 0.198859 -0.0807984 0.0114205 -0.0812716 
-0.0249716 0.126893 -0.0232954 -0.108554 0.486352 -0.0212133 0.177389 -0.160175 0.400897 
-0.138254 0.443079 -0.157573 0.113364 0.14952 0.159694 0.0549251 0.307971 0.0605251 
0.0178248 0.182271 0.0256719 0.063298 0.0486999 0.330391 -0.0313971 0.131384 -0.0569669 
-0.103974 0.0796217 -0.173328 -0.113048 0.028997 -0.167194 -0.00156254 0.163514 -0.00767368 
-0.0447665 0.024006 -0.0592701 -0.116155 0.491642 -0.115352 0.110391 -0.0450368 0.420223 
-0.0677133 0.381731 -0.0579031 0.123148 0.225762 0.14709 0.0851379 0.0959995 0.111474 
-0.0114999 0.15222 -0.0190315 -0.0793266 0.103893 -0.119612 -0.125106 0.0542536 -0.194586 
0.0328941 0.113211 0.0907809 -0.0905518 0.00287438 -0.135407 -0.0113878 0.0977295 -0.0662284 
0.162944 -0.134364 0.455806 -0.0507087 0.400924 0.15707 -0.0965028 0.440185 -0.0833255 
0.0288984 0.322324 0.0521087 0.141723 0.11242 0.1811 0.0750697 0.0235308 0.232489 
0.0440634 0.0742648 0.0548835 -0.0529338 0.125438 -0.0679517 -0.119655 0.0792553 -0.165991 
-0.126302 0.0262444 -0.191836 0.0142134 0.126426 -0.0378474 -0.0500089 0.0228848 -0.106172 
-0.0668466 0.432548 -0.00637734 0.11785 -0.0666147 0.362845 -0.0473059 0.377472 0.0107725 
0.11146 0.240828 0.143737 0.122228 0.0126122 0.168052 -0.00467744 0.07172 0.000634764 
-0.100218 0.104144 -0.1162 -0.14122 0.0526773 -0.18993 0.0412493 0.0708977 0.0366689 
-0.106226 0.0107721 -0.170518 -0.00392765 0.0999796 -0.0775305 0.160675 -0.140901 0.462171 
-0.0402537 0.42495 0.146761 -0.0594942 0.425038 -0.0273402 0.0297643 0.32064 0.117698 
0.148262 0.116652 0.202077 0.0780217 -0.0355326 0.124546 0.07639 -0.0158398 0.139371 
-0.0576354 0.0758244 -0.0487287 -0.137042 0.0817625 -0.152604 -0.143125 0.0299308 -0.19472 
0.0274573 0.114406 -0.00632372 -0.0614603 0.0412293 -0.136229 0.161327 -0.170036 0.416957 
-0.00224872 0.117993 -0.0770488 -0.123045 0.024468 -0.182325 -0.155735 0.0586124 -0.17446 
-0.106067 0.0778568 -0.0912855 -0.0172453 0.364522 0.0707985 0.106405 0.25206 0.200477 
0.0209654 -0.0351626 0.069741 0.140223 -0.0171941 0.221479 -0.0241234 0.355512 0.0987402 
0.0466358 0.0456228 0.0720288 0.117106 -0.107034 0.259171 -0.075359 0.0607342 -0.150637 
0.0385514 0.123892 0.0345069 -0.155656 0.0412962 -0.183581 -0.139384 0.0737459 -0.125147 
-0.0374266 -0.010255 0.0161572 0.0682373 -0.0427863 0.13282 0.102101 -0.10132 0.202444 
0.145094 0.142396 0.247986 0.0500479 0.304929 0.201086 -0.0308049 0.387145 0.0156432 
-0.0903038 0.528918 -0.100115 0.153231 -0.204122 0.337581 -0.0071755 0.131892 -0.0817109 
-0.134558 0.0411934 -0.17987 0.0548729 0.0457576 0.142521 -0.154388 0.0660022 -0.150863 
-0.0853034 0.0188415 -0.032485 0.0488161 -0.119195 0.157624 0.139104 0.00431969 0.267246 
0.117864 0.250051 0.297545 0.00633742 0.349151 0.0972508 0.0970811 -0.13152 0.197588 
-6.99343e-06 0.344467 0.130227 -0.0870151 0.0742901 -0.157611 0.0444723 0.138621 0.0474505 
-0.152035 0.060305 -0.168875 -0.114794 0.0434471 -0.0769911 -0.00522061 -0.0925548 0.101174 
0.105243 -0.0998058 0.256319 0.0645252 -0.0468909 0.205926 0.146776 0.172075 0.326866 
0.0737229 0.283924 0.256191 -0.00301292 0.32133 0.0643182 -0.18459 0.617953 -0.45978 
0.128316 -0.22434 0.270432 -0.0172973 0.132254 -0.0968221 -0.131386 0.0644585 -0.177134 
0.0643286 0.0620091 0.185666 -0.125948 0.0630786 -0.117984 -0.0468254 -0.0471131 0.0400525 
0.0593223 -0.136005 0.214623 0.128839 0.0618258 0.312516 0.140594 0.234288 0.390086 
0.0199901 0.325433 0.0955795 0.0781475 -0.135242 0.243516 -0.0189109 0.443264 0.00105679 
-0.0888225 0.0873819 -0.168038 0.0426148 0.143144 0.0263464 -0.121891 0.0792108 -0.153497 
-0.0693345 0.00200741 -0.0228114 0.0148707 -0.115984 0.149548 0.0693752 -0.033857 0.280139 
0.088837 -0.0349619 0.275769 0.089565 0.263321 0.267496 0.161093 0.191727 0.422731 
0.0231389 0.274284 0.103267 0.0970269 -0.222161 0.280835 -0.243724 0.585903 -0.659242 
-0.0265164 0.123345 -0.122601 -0.103938 0.0937094 -0.178826 0.0703013 0.0778948 0.179372 
-0.0745449 0.0477931 -0.082715 -0.0161009 -0.065543 0.0694719 0.0452722 -0.0725391 0.212874 
0.122168 0.131034 0.361751 0.0298457 0.279924 0.086247 0.16197 0.210696 0.439888 
0.0725221 -0.123181 0.332038 -0.101118 0.579042 -0.291148 -0.0710943 0.108157 -0.184678 
0.0340362 0.130812 -0.0184235 -0.0674926 0.08612 -0.13371 -0.0279621 -0.00687223 -0.0123599 
0.0085556 -0.0524112 0.12158 0.0768995 -0.0147885 0.306134 0.0631341 0.0700774 0.268389 
0.185418 0.191222 0.502767 0.0862666 0.245806 0.218196 0.0260759 0.334026 0.0578518 
0.078094 -0.204853 0.360694 -0.0244982 0.118591 -0.154711 -0.0520269 0.113647 -0.170196 
-0.189407 0.466677 -0.533997 0.0694052 0.0806539 0.13005 -0.0235748 0.0448788 -0.0784759 
-0.0119553 -0.00175264 0.0135949 0.0133546 0.0509423 0.158447 0.127853 0.186061 0.409494 
0.170634 0.185868 0.428231 0.044247 0.220376 0.0877671 0.0763244 -0.103157 0.390058 
-0.116795 0.585342 -0.351149 0.0251724 0.109125 -0.072528 -0.0300335 0.126491 -0.184979 
-0.00992747 0.0825889 -0.118668 -0.0119579 0.0472998 -0.0806608 0.0812986 -0.00142796 0.275371 
-0.0193147 0.0763285 0.0299062 0.0417058 0.179684 0.247478 0.208662 0.172884 0.535603 
0.0711096 0.213624 0.137812 0.0745176 -0.18069 0.439338 -0.00276994 0.119898 -0.167542 
0.0327613 0.347409 0.012626 0.0614361 0.065598 0.0566689 0.00659961 0.104442 -0.133726 
0.00387668 0.0737525 -0.128911 -0.10051 0.444582 -0.326813 -0.029976 0.113913 -0.0959123 
0.159996 0.162976 0.35723 -0.0201941 0.188293 0.0823999 0.143816 0.21061 0.431013 
0.081694 -0.0847476 0.387232 0.0265061 0.0904838 -0.10827 -0.161632 0.513299 -0.433618 
0.0218599 0.109527 -0.12929 0.0670941 0.164023 0.0869925 0.0258982 0.0756425 -0.12308 
0.0785441 -0.00327778 0.200984 -0.0184278 0.127145 -0.177281 0.219067 0.144319 0.508613 
-0.0490926 0.207189 -0.0666613 0.0354973 0.254093 0.215606 0.0778128 -0.157178 0.462366 
-0.00839674 0.486483 -0.122457 0.0339274 0.0955121 -0.10847 0.0517727 0.0404768 -0.00855746 
0.0459254 0.0618493 -0.079617 0.13721 0.134431 0.256009 0.00635648 0.103634 -0.187654 
0.157253 0.205562 0.393038 -0.0488313 0.206749 -0.172795 -0.0347745 0.276822 0.0218426 
-0.0275919 0.514477 -0.163288 0.0820109 -0.0772978 0.323765 0.0711031 0.173106 0.0562375 
0.042664 0.0607261 -0.069362 0.0594233 0.0406884 -0.0224163 -0.134318 0.39326 -0.344503 
0.211247 0.109418 0.432198 0.0325158 0.0559105 -0.134276 0.0676793 -0.0219847 0.114407 
-0.0282524 0.16923 -0.213551 0.0442271 0.267712 0.152027 -0.0571646 0.267183 -0.106175 
0.0786955 -0.142197 0.412281 -0.0620821 0.540583 -0.232556 0.0490229 0.00880345 -0.00863692 
0.115217 0.0913198 0.154539 0.064706 0.015179 0.0305722 0.0529391 0.00120355 -0.042354 
-0.000633591 0.104284 -0.193736 0.157002 0.176379 0.29493 -0.0485289 0.221504 -0.162999 
-0.0214794 0.273068 -0.0219673 0.0227159 0.606487 -0.0532981 0.071959 -0.0872283 0.224579 
0.0571881 0.303517 -0.00758354 0.0621612 -0.0159164 0.0723592 0.0653058 -0.0492208 0.0609121 
0.0535844 -0.0511845 0.0728304 0.184601 0.0657198 0.321882 -0.0778303 0.342782 -0.210618 
0.0234978 0.0298477 -0.131457 -0.0257078 0.152163 -0.163871 0.053693 0.227682 0.044056 
-0.0373381 0.228078 -0.097163 -0.0962772 0.461371 -0.257024 0.0684491 -0.1426 0.304026 
0.0982844 0.0677386 0.0651044 0.0540737 -0.0536987 0.104964 0.0691966 -0.0907041 0.153462 
0.0398082 -0.0434367 -0.0398207 -0.00104574 0.0777218 -0.134695 0.148512 0.116736 0.210124 
-0.0278066 0.158115 -0.104111 -0.00196491 0.202964 -0.0886836 0.0563394 0.677716 0.0197856 
0.0506535 -0.112842 0.153869 0.0183006 0.467477 -0.0876103 0.0441225 -0.0958064 0.134365 
0.0484527 -0.109832 0.0692008 0.064526 -0.123795 0.222013 0.0184221 0.00835511 -0.0924102 
0.13849 0.014553 0.16759 -0.00936111 0.0838396 -0.0759902 -0.0138702 0.135564 -0.108164 
0.0573071 0.159928 -0.0252633 -0.0223733 0.38766 -0.0956615 -0.0859268 0.337787 -0.193986 
0.0415299 -0.159236 0.209127 0.0720499 0.260374 -0.00999412 0.0509407 -0.164444 0.179381 
0.0296377 -0.0570498 -0.036663 0.00960379 0.0188269 -0.0382949 0.0516164 -0.149644 0.258473 
-0.0064858 0.058946 -0.0726173 0.138557 0.0354912 0.186402 0.00854166 0.124781 -0.123686 
0.0778415 0.716916 0.0675073 0.0327697 -0.152379 0.216079 -0.0568107 0.423004 -0.147922 
0.032833 -0.122844 0.0413004 0.0243349 -0.03047 -0.00845829 0.0479443 -0.203765 0.274253 
0.00787777 -0.0130122 -0.0155494 0.101396 0.0382056 0.0322507 -0.00202721 0.0539286 -0.110862 
0.0743544 0.0827203 0.0513433 -0.0104094 0.36857 -0.0560563 0.0168334 -0.190111 0.244443 
0.0394012 -0.219893 0.335195 0.0315914 -0.0679954 0.0103517 0.0237209 0.470169 -0.051934 
0.0308293 -0.187199 0.143092 0.0236888 -0.0726744 0.0445135 0.00402693 -0.0215316 -0.0542036 
0.029446 0.0699747 -0.0175856 0.11546 -0.0232363 0.100568 0.0889785 0.727174 0.0939339 
0.0255158 -0.220514 0.338582 -0.0486466 0.26591 -0.0861602 0.0301103 -0.109124 0.0358701 
0.0270813 -0.240522 0.260597 0.0368183 -0.111022 0.0900679 0.016665 -0.093226 0.0173341 
0.0168376 0.0159164 -0.00260372 0.0695821 0.315315 -0.0122666 0.091959 0.0147993 0.129863 
0.0251681 0.461578 0.0079673 0.0218806 -0.16688 0.0949195 0.0429094 -0.122295 0.104679 
0.00854464 -0.246068 0.361245 -0.0313576 0.331813 -0.0479029 0.031956 -0.157616 0.0927197 
0.0190571 -0.0505392 0.0424476 0.0576188 0.0464168 0.132076 0.0181018 -0.268313 0.342841 
0.0870099 0.0774185 2.72445e-05 0.0948461 0.720827 0.110574 0.0139746 0.371001 0.00935528 
0.0122043 -0.226605 0.184623 0.0391451 -0.118429 0.0901764 0.0467921 -0.20596 0.160917 
0.0277403 -0.120837 0.0977158 0.0429519 0.0293145 0.160025 0.0375182 0.441306 0.019342 
0.0836406 -0.00110701 0.0542607 0.0275667 -0.130227 0.0820439 0.000839312 -0.281498 0.362204 
0.056501 -0.222716 0.202937 -0.0166384 0.22055 0.00829063 0.039772 -0.192112 0.157913 
0.0419625 -0.0184037 0.199415 0.0645991 0.0309563 0.136189 0.00152793 -0.257812 0.243179 
0.071741 0.33417 0.0189524 0.0966384 0.707898 0.119016 0.0131122 -0.16539 0.10613 
0.0413048 0.467399 0.0534667 0.0560729 -0.200054 0.200223 0.0532366 -0.258368 0.218612 
0.0530792 0.0570879 0.218134 0.0677484 0.124943 -0.0048167 0.0471438 -0.0821482 0.240057 
0.00678231 0.289481 0.062662 0.0455089 -0.159448 0.162495 -0.00998076 -0.255892 0.237979 
0.0653488 -0.304331 0.271413 0.0687916 0.405594 0.101371 0.0515871 0.0599026 0.0458966 
0.0537295 0.045775 0.291725 0.0549456 -0.15783 0.277328 0.00301974 -0.176971 0.123487 
0.025698 0.334816 0.0559709 0.096167 0.690707 0.124391 0.0296574 -0.134165 0.123935 
0.0707046 -0.307166 0.296315 0.0142006 0.194203 0.107877 0.0697401 0.28434 0.0395669 
0.0405148 0.0796515 0.139309 0.0636845 -0.240867 0.308931 0.0604418 0.00474865 0.353681 
0.0634013 -0.25524 0.27057 0.000504817 -0.153364 0.112673 0.0941756 0.674414 0.127237 
0.0389966 0.36973 0.0820112 0.0708844 0.34404 0.182299 0.0724258 -0.317366 0.336651 
0.0444242 0.170332 0.00917137 0.041865 0.0958972 0.246057 0.0688841 -0.0625649 0.398441 
0.0335298 -0.143793 0.156877 0.030865 0.15922 0.154739 0.0784476 -0.360105 0.355019 
0.0235837 0.134114 0.0448697 0.0908231 0.3651 0.164215 0.076161 -0.151971 0.42014 