# vtk DataFile Version 3.0
vtk output
ASCII
DATASET POLYDATA
POINTS 724 float
10.7793 -11.2672 11.4865 11.1434 -12.0891 11.4831 10.3923 -10.4241 11.6428 
11.4374 -12.8142 11.5812 10.1146 -9.76136 11.8924 10.5988 -10.9 11.8171 
11.7208 -13.4616 11.6649 9.93178 -9.21715 12.2334 10.9217 -11.6229 11.8037 
10.3303 -10.2928 12.0492 11.2067 -12.2949 11.8808 11.4673 -12.9132 11.9613 
11.9996 -14.0067 11.6895 10.1277 -9.75801 12.3259 9.84441 -8.76407 12.6596 
10.6373 -11.0263 12.1468 11.6914 -13.3969 12.1003 10.9625 -11.7873 12.1907 
10.0051 -9.29637 12.6949 10.3698 -10.382 12.4419 12.2842 -14.4914 11.691 
9.84891 -8.3548 13.1629 11.2838 -12.5537 12.3112 11.9785 -13.9101 12.1389 
9.95298 -8.84461 13.1215 10.1947 -9.82839 12.8155 10.652 -11.0818 12.5396 
11.5709 -13.1915 12.5192 12.5577 -14.9037 11.7127 10.9525 -11.8082 12.6046 
9.91159 -8.03829 13.6352 10.1056 -9.2995 13.269 10.4245 -10.4431 12.9305 
12.284 -14.378 12.1508 10.036 -8.65258 13.6343 11.2339 -12.476 12.7707 
11.9075 -13.7837 12.6228 10.6828 -11.1083 13.0289 10.2963 -9.85944 13.4009 
10.0143 -7.72052 14.1979 12.8167 -15.2447 11.7914 12.5959 -14.8009 12.1528 
11.5242 -13.091 13.0075 10.0841 -8.24924 14.0861 10.9505 -11.7674 13.1271 
10.2218 -9.21771 13.837 10.5196 -10.4801 13.5335 12.306 -14.3539 12.6223 
11.2252 -12.393 13.3157 10.2228 -8.69192 14.243 10.4307 -9.83069 14.0402 
10.7632 -11.1211 13.6482 11.8882 -13.7029 13.1451 13.0221 -15.4728 11.9276 
10.1708 -7.85581 14.6331 10.135 -7.34204 14.8707 12.7692 -14.9531 12.4182 
11.0193 -11.7428 13.7671 11.5287 -12.9936 13.5626 10.3995 -9.19747 14.4636 
10.6606 -10.4772 14.2165 12.3618 -14.3536 13.0743 10.2737 -8.19762 14.7393 
13.048 -15.2569 12.475 11.2915 -12.3276 13.9459 10.9064 -11.1193 14.3473 
10.6015 -9.77694 14.6972 11.9178 -13.623 13.711 10.4014 -8.58858 14.8747 
10.2908 -7.52634 15.2606 10.2414 -6.87823 15.5516 13.2333 -15.6518 12.1779 
12.7326 -14.7715 13.0577 11.1607 -11.7157 14.4634 11.594 -12.8967 14.1573 
10.8257 -10.408 14.891 10.5646 -9.05388 15.0651 10.399 -7.90222 15.3474 
12.3499 -14.1726 13.7756 13.0429 -15.0618 13.1309 10.3618 -6.33477 16.2526 
10.3941 -7.12467 15.8766 13.2874 -15.4 12.8478 11.4219 -12.2575 14.5986 
11.0707 -11.0401 15.0216 10.754 -9.59624 15.2918 10.5301 -8.32948 15.4417 
11.9477 -13.4426 14.3574 13.4305 -15.7467 12.5661 12.777 -14.6155 13.8291 
10.505 -7.58465 15.9118 11.3211 -11.6168 15.1184 10.6952 -8.80038 15.5999 
10.9629 -10.1981 15.4884 11.6965 -12.7548 14.7668 12.3866 -13.99 14.4906 
10.4867 -6.41188 16.5765 13.1943 -15.0294 13.734 10.6035 -5.65856 17.2342 
10.6431 -8.04339 15.977 13.4667 -15.375 13.4594 10.8804 -9.32203 15.816 
11.1947 -10.8086 15.6205 11.5651 -12.1172 15.2181 10.5307 -6.8237 16.498 
12.0166 -13.2597 14.9481 13.6059 -15.7563 13.0742 12.8992 -14.543 14.4867 
10.8133 -8.51659 16.1107 10.6157 -7.25993 16.4714 11.0693 -9.87974 16.0256 
11.4343 -11.3667 15.7124 11.8113 -12.5764 15.3307 12.454 -13.8455 15.0785 
13.3302 -14.9619 14.395 10.6859 -5.89626 17.3815 10.8895 -4.91871 18.3436 
10.7493 -7.71483 16.5056 13.6194 -15.2878 14.1843 10.995 -9.00472 16.3172 
11.2712 -10.4395 16.1772 11.6653 -11.8577 15.7885 10.6688 -6.38716 17.1466 
13.7676 -15.7157 13.6614 12.0923 -13.0613 15.4559 12.9586 -14.4078 15.1224 
10.969 -4.99775 18.5596 10.9187 -8.16544 16.6258 10.7234 -6.85287 17.0371 
11.1663 -9.50801 16.5417 11.4855 -10.9641 16.2795 11.8929 -12.3144 15.8585 
13.3826 -14.8226 15.0967 12.4575 -13.5948 15.6012 10.8859 -5.53362 18.1359 
13.8101 -15.3747 14.5681 11.2222 -3.79172 19.7847 10.8454 -7.27843 17.0555 
11.0979 -8.62691 16.8206 11.3358 -10.0066 16.7222 11.7012 -11.4493 16.3495 
12.8933 -14.1175 15.7241 10.8336 -6.03184 17.8006 12.1353 -12.7644 15.9503 
13.6543 -15.0484 15.1858 13.9496 -15.6614 14.4043 11.2205 -4.15211 19.6715 
11.0098 -7.71778 17.1562 11.2608 -9.09524 17.052 10.8689 -6.40913 17.6902 
11.5165 -10.4804 16.8472 13.266 -14.4905 15.8356 11.916 -11.9021 16.4095 
12.4242 -13.2297 16.0954 11.0576 -5.05299 18.8883 13.9104 -15.2804 15.3066 
11.647 -2.8757 21.2514 11.189 -8.17471 17.334 10.9656 -6.79675 17.6694 
11.4113 -9.55442 17.2566 13.5845 -14.7909 15.9046 11.7056 -10.9271 16.9355 
12.1386 -12.3358 16.4893 12.767 -13.6755 16.2913 11.0256 -5.50649 18.6178 
14.0939 -15.6276 15.0874 11.3335 -3.96329 20.1235 11.6925 -3.05926 21.3332 
11.1132 -7.21954 17.7321 11.3511 -8.63782 17.5577 11.5675 -9.98689 17.4114 
11.0462 -5.89766 18.4538 11.9031 -11.3556 17.0115 13.1343 -14.087 16.4652 
12.3842 -12.7578 16.6302 13.7865 -14.9499 16.0659 11.2552 -4.41421 19.7847 
14.0208 -15.2681 15.8867 12.13 -1.88657 22.7311 11.2845 -7.67612 17.8775 
11.4954 -9.08701 17.7714 11.1208 -6.29097 18.3707 11.7345 -10.3932 17.5315 
12.1139 -11.773 17.1056 12.6788 -13.1899 16.8409 13.4262 -14.3628 16.636 
11.2202 -4.86009 19.5019 14.1894 -15.5675 15.7905 11.6557 -3.32076 21.2335 
11.4443 -8.14853 18.0758 11.2475 -6.71411 18.3766 11.6416 -9.5062 17.9491 
11.915 -10.7866 17.6413 12.1081 -2.29002 22.5975 11.2335 -5.3025 19.2821 
13.7378 -14.7101 16.6605 12.3501 -12.2003 17.2432 12.9976 -13.5733 17.0847 
11.531 -3.74139 20.8168 13.9979 -15.0668 16.5474 12.3225 -0.876637 23.6126 
11.4055 -7.17795 18.4723 11.5853 -8.60646 18.2768 11.2965 -5.74774 19.1351 
11.8002 -9.8991 18.1007 12.1173 -11.1884 17.7617 12.619 -12.6261 17.4547 
11.4549 -4.18507 20.4372 13.3465 -13.995 17.2303 12.0066 -2.74635 22.2921 
14.2049 -15.4382 16.4204 11.5569 -7.66313 18.6299 11.4098 -6.21385 19.0753 
11.7265 -9.03335 18.4567 13.6657 -14.4043 17.2453 11.9773 -10.2848 18.2445 
11.4388 -4.66086 20.13 12.3375 -1.45618 23.4713 12.3492 -11.6103 17.9157 
12.9454 -13.1095 17.675 11.8588 -3.24506 21.8085 13.94 -14.8142 17.1423 
12.4516 -0.0127118 24.1852 11.5558 -6.70607 19.1144 11.6899 -8.1359 18.7986 
11.482 -5.17648 19.9012 11.8827 -9.438 18.6224 11.7493 -3.70903 21.3444 
12.1805 -10.6827 18.3979 13.2918 -13.6087 17.8078 12.6249 -12.099 18.0947 
12.2762 -2.08563 23.1565 14.167 -15.2413 17.0039 11.5839 -5.70711 19.7821 
11.6966 -7.21495 19.2233 11.6923 -4.19776 20.9307 11.8223 -8.57816 18.9568 
13.6098 -14.0848 17.8088 12.0636 -9.8405 18.7896 12.1602 -2.75345 22.6767 
12.4203 -11.1294 18.5617 12.457 -0.729809 24.0432 12.9434 -12.6545 18.267 
13.8808 -14.5389 17.7063 11.7057 -4.70879 20.6406 11.7207 -6.25424 19.7686 
12.0394 -3.39722 22.1106 11.8181 -7.70799 19.3506 12.6871 0.76176 24.8218 
11.9726 -9.00144 19.1123 12.2792 -10.2703 18.9663 13.2757 -13.2313 18.3639 
12.4385 -1.4805 23.7544 12.6983 -11.6497 18.7217 14.1091 -15.0046 17.5592 
12.3591 -2.39555 23.2294 11.9815 -3.91868 21.6756 11.7815 -5.25885 20.4691 
11.853 -6.80727 19.8308 13.5798 -13.7691 18.3515 11.938 -8.16622 19.4735 
12.1544 -9.43391 19.2796 12.5359 -10.7499 19.1504 13.0019 -12.249 18.8437 
12.6104 -0.15963 24.5363 13.8374 -14.2615 18.2508 12.5395 -1.31234 24.028 
12.3023 -3.10892 22.7772 11.9759 -4.41654 21.3538 11.8972 -5.84547 20.4068 
11.9655 -7.33261 19.9208 12.0764 -8.6065 19.599 13.3052 -12.8789 18.8976 
12.9916 1.50631 25.5856 12.3808 -9.90162 19.4702 12.8249 -11.2977 19.3118 
14.0561 -14.7562 18.0947 12.6867 -0.359517 24.644 12.5387 -2.06055 23.7052 
12.2732 -3.70992 22.3797 12.017 -4.94752 21.1378 13.5823 -13.4675 18.8719 
12.0162 -6.44118 20.4288 12.0743 -7.81184 20.0097 12.2507 -9.05938 19.7461 
13.1159 -11.9156 19.4052 12.6588 -10.4223 19.681 12.9206 0.815465 25.3595 
13.819 -13.9949 18.7769 12.5388 -2.78641 23.3756 12.6963 -1.05196 24.4202 
12.2656 -4.24539 22.0486 12.0952 -5.52873 21.0287 12.1214 -7.00179 20.4904 
12.1998 -8.26401 20.1022 13.3839 -12.5651 19.4219 12.4788 -9.55402 19.934 
12.9693 -11.0053 19.8699 13.3301 2.30728 26.4304 14.0212 -14.5165 18.6104 
12.8909 0.0692557 25.1524 12.5412 -3.48423 23.0434 12.725 -1.7353 24.1753 
12.2804 -4.77065 21.8013 13.6238 -13.1842 19.3798 12.1889 -6.13321 21.0145 
12.2243 -7.50409 20.557 12.3613 -8.72468 20.219 13.2597 -11.6404 19.969 
12.7722 -10.1083 20.1674 13.1819 1.40452 25.9954 13.8311 -13.7405 19.2921 
12.891 -0.688356 24.916 12.7547 -2.45974 23.9141 12.5451 -4.10776 22.732 
12.3195 -5.32397 21.6539 12.2842 -6.70879 21.0557 12.3413 -7.9673 20.6257 
13.4999 -12.2902 19.9637 12.5809 -9.22779 20.3878 13.1052 -10.7249 20.4023 
14.0092 -14.2944 19.1045 13.6043 3.08737 27.0782 13.1079 0.514558 25.6742 
12.9238 -1.40897 24.6797 12.7793 -3.22487 23.6477 13.702 -12.9158 19.8999 
12.5507 -4.66632 22.4762 12.3811 -5.90003 21.6082 12.3846 -7.22545 21.1117 
12.4908 -8.42833 20.7148 13.4028 -11.3832 20.5456 12.8766 -9.79477 20.626 
13.4208 1.99649 26.5747 13.8758 -13.4893 19.815 13.1011 -0.326198 25.4343 
12.9636 -2.15084 24.4353 12.7981 -3.94784 23.3881 12.5655 -5.20341 22.3072 
12.4622 -6.45782 21.6328 12.4986 -7.69637 21.1686 13.6268 -12.0337 20.5472 
12.6961 -8.92485 20.8544 13.2219 -10.4278 20.9021 14.0201 -14.0889 19.5757 
13.7967 3.90255 27.481 13.3063 1.00114 26.1527 13.1355 -1.10525 25.2158 
12.9955 -2.9489 24.1997 12.8103 -4.57222 23.1579 13.7991 -12.6507 20.4628 
12.6017 -5.73855 22.2395 12.5607 -6.96698 21.6829 12.6397 -8.155 21.2375 
13.5256 -11.1042 21.1102 12.9784 -9.48212 21.0734 14.0473 -13.8897 20.0224 
13.3184 -10.1096 21.3596 12.8283 -8.63722 21.3459 12.6749 -7.43382 21.7344 
12.6693 -6.25514 22.2496 13.2942 0.0641549 25.9084 13.1761 -1.87513 24.9742 
12.8218 -5.11921 22.9944 13.0218 -3.74512 23.9881 13.6364 2.59998 27.0926 
13.7397 -11.7584 21.1605 13.9434 -13.2242 20.3738 13.0856 -9.17193 21.5256 
13.6215 -10.789 21.6179 12.8105 -7.88479 21.7891 12.7649 -6.73311 22.2918 
12.8506 -5.62468 22.9221 13.8899 -12.3554 21.0891 13.0455 -4.44053 23.8053 
13.2035 -2.684 24.7309 13.3404 -0.790496 25.7374 13.4852 1.51192 26.5892 
13.9153 4.69231 27.7036 14.0826 -13.6624 20.4892 13.401 -9.77778 21.7823 
12.9821 -8.35112 21.8672 13.8301 -11.4435 21.7439 12.8795 -7.17716 22.3353 
12.9133 -6.09745 22.9242 13.0705 -5.01728 23.6759 13.2236 -3.50997 24.53 
13.3889 -1.60415 25.5281 13.4543 0.490431 26.3033 14.0075 -12.8889 21.0097 
13.8209 3.27835 27.53 13.2071 -8.86171 21.9974 13.6927 -10.4429 22.0515 
13.0104 -7.60913 22.3752 13.0085 -6.53269 22.9581 13.111 -5.51429 23.6221 
[...]
POINT_DATA 724
VECTORS velocity double
0.107579 -0.011586 -0.381025 0.144084 -0.027444 -0.367425 -0.0247758 0.0913003 -0.332288 
0.074879 0.0268015 -0.277381 -0.125854 0.164285 -0.315121 0.0186138 0.00228421 -0.357052 
-0.00425108 0.0624737 -0.183897 -0.175861 0.175312 -0.341333 0.0876016 -0.0741562 -0.378232 
-0.0812145 0.0848013 -0.320392 0.0697592 -0.0658459 -0.335025 -0.0014494 -0.000694713 -0.247356 
-0.0223181 0.0138658 -0.153358 -0.145796 0.13381 -0.313731 -0.186529 0.139807 -0.388542 
-0.000506535 -0.0513414 -0.332149 -0.0719197 0.0364029 -0.170732 0.0463141 -0.130021 -0.330106 
-0.167665 0.126766 -0.334223 -0.0895764 0.0328216 -0.28151 0.0197974 -0.108656 -0.191103 
-0.175573 0.0844087 -0.430999 -0.00173386 -0.0886495 -0.248848 -0.095948 0.0165326 -0.139222 
-0.158513 0.0815424 -0.372116 -0.133558 0.0703259 -0.261479 -0.0174748 -0.105957 -0.262244 
-0.0896857 -0.00284185 -0.127568 0.0920253 -0.247838 -0.271042 0.0211914 -0.185387 -0.24009 
-0.162722 0.0465889 -0.443121 -0.128686 0.0451946 -0.279411 -0.0791117 -0.0368335 -0.185208 
-0.0584114 -0.0869476 -0.173113 -0.119615 0.0110852 -0.359209 -0.0111686 -0.153017 -0.14765 
-0.138114 0.0366014 -0.0663231 -0.0139583 -0.171994 -0.133083 -0.0916012 -0.0160818 -0.152154 
-0.153634 0.0353726 -0.41897 0.164816 -0.360174 -0.359681 0.025337 -0.229357 -0.254689 
-0.0764107 -0.045963 -0.0118085 -0.101404 -0.025637 -0.370867 0.0270234 -0.254067 -0.085802 
-0.0740936 -0.0392303 -0.209977 -0.0404947 -0.121106 -0.0326911 -0.101288 -0.0547014 -0.108557 
0.0232345 -0.230195 0.0149097 -0.051874 -0.0792073 -0.265536 -0.0368819 -0.0961016 -0.0371441 
0.0227098 -0.250614 0.0454361 -0.130227 0.0528608 0.0636216 0.213348 -0.420366 -0.420566 
-0.0939613 -0.0270311 -0.342784 -0.161721 0.085022 -0.358694 0.0464369 -0.270846 -0.269872 
0.0767827 -0.335143 0.104849 -0.0134176 -0.104953 0.146135 -0.0152557 -0.118701 -0.121161 
0.0067097 -0.185627 0.0959336 -0.10673 -0.0113151 -0.00972821 -0.0404067 -0.0956432 -0.277591 
0.13446 -0.358939 -0.341809 0.10036 -0.315548 0.184857 0.0735433 -0.310105 0.166216 
-6.03503e-05 -0.139346 0.01539 -0.0732511 0.0551125 0.215442 0.000853788 -0.146734 -0.192153 
-0.0926538 0.0104449 -0.281796 -0.19891 0.215187 -0.305206 0.247438 -0.445466 -0.452975 
-0.0183926 -0.14024 -0.104932 0.144199 -0.40065 0.206604 0.0818136 -0.182448 0.269576 
0.0215055 -0.186108 0.0965883 0.0180096 -0.163658 -0.0961738 -0.0255469 -0.0933109 -0.225833 
-0.0830198 0.08238 0.186943 0.0712047 -0.226596 -0.165144 -0.230926 0.352941 -0.269155 
-0.120393 0.115232 -0.243481 0.174202 -0.34879 -0.310747 0.183014 -0.3911 0.244534 
0.0861936 -0.297586 0.129251 0.00399968 -0.137841 -0.027768 0.0203858 -0.166425 -0.164667 
0.0293687 -0.00592861 0.31515 0.262619 -0.421518 -0.423487 -0.0194207 -0.00456926 0.107669 
-0.0370856 -0.0365571 -0.194405 0.169534 -0.406057 0.145961 0.0292577 -0.181008 -0.111113 
-0.00719267 -0.123629 -0.00707712 0.174028 -0.281749 0.275053 -0.0179333 0.0957477 0.290056 
-0.181805 0.300797 -0.232442 0.0900711 -0.142123 -0.0191629 -0.190838 0.35035 -0.18558 
0.0160826 -0.140603 -0.151248 0.185972 -0.258159 -0.162626 -0.00435053 -0.126276 -0.09451 
0.0356578 -0.196495 -0.00620352 0.220501 -0.430308 0.159731 -0.124197 0.184682 -0.211606 
0.11619 -0.110479 0.281454 0.269766 -0.351694 -0.317775 0.0140646 0.0337842 0.194862 
0.0245295 -0.169014 -0.127682 -0.0584089 0.047781 -0.180331 -0.0470419 -0.0540407 -0.116809 
0.118394 -0.317227 -0.00100909 0.21974 -0.360751 0.168998 0.0314034 0.0408473 0.249465 
0.114212 -0.0900472 0.0916864 -0.14772 0.294196 -0.165929 -0.136721 0.279222 -0.0627006 
-0.0068205 -0.0694413 -0.1514 0.205219 -0.179946 -0.0036773 -0.0148939 -0.110969 -0.141536 
-0.0457648 -0.0539939 -0.138948 0.186386 -0.393597 0.0106719 -0.122634 0.239692 -0.180165 
0.286273 -0.271533 -0.170796 0.163746 -0.213206 0.168882 0.0290415 0.0199914 0.180153 
-0.106333 0.253886 -0.0386356 0.0057883 -0.118109 -0.142788 -0.0788788 0.138705 -0.171294 
-0.0733268 -0.0101613 -0.182354 0.00822573 -0.13802 -0.138701 0.209517 -0.386335 0.0251098 
0.113209 -0.0884327 0.115807 0.0715541 -0.0543995 0.144913 -0.0944122 0.228157 -0.0805048 
0.257982 -0.200342 0.0196376 -0.126265 0.426054 0.059409 -0.0379933 0.036927 -0.156154 
-0.0267904 -0.0804323 -0.164747 -0.106136 0.0527812 -0.211918 0.0806155 -0.243488 -0.120792 
0.0246358 -0.0136852 0.103533 -0.0866401 0.211655 -0.119048 0.178825 -0.296527 0.0329421 
0.188078 -0.168209 0.0751565 0.323935 -0.236248 -0.0347844 -0.0990077 0.375374 0.0449174 
-0.0206531 -0.0286515 -0.153362 -0.0837972 0.0149173 -0.202827 -0.06781 0.16916 -0.13023 
-0.094712 0.040342 -0.210642 0.0592626 -0.0821286 0.066774 0.132331 -0.305494 -0.0979179 
0.103851 -0.161335 0.0257867 -0.0691185 0.229571 -0.00654854 0.269911 -0.243564 0.0434006 
-0.0786638 0.460492 0.265096 -0.0403045 -0.0241864 -0.172622 -0.0461041 0.109836 -0.134062 
-0.128694 0.0998472 -0.223749 0.132408 -0.173067 0.0456696 -0.0512378 -0.0253667 -0.185398 
0.140395 -0.292568 -0.0783788 0.0310516 -0.0668093 0.00961957 -0.0485201 0.181897 -0.0287162 
0.360252 -0.283065 0.0129954 -0.0809379 0.413502 0.0776629 -0.0542005 0.448168 0.237891 
-0.0344729 0.0563895 -0.142124 -0.0856371 0.040949 -0.201207 -0.142623 0.133204 -0.212262 
-0.032679 0.148262 -0.0477717 -3.36128e-05 -0.0997064 -0.149744 0.0144643 -0.0644707 0.00820428 
0.10048 -0.208631 -0.0643676 0.184986 -0.236316 0.0325929 -0.0619847 0.335835 0.0505684 
0.284714 -0.304742 0.0295871 0.0220498 0.310473 0.432742 -0.0472401 0.0422219 -0.163886 
-0.12707 0.112484 -0.210341 -0.020294 0.114452 -0.0656704 -0.128993 0.119407 -0.175062 
0.0337914 -0.138399 -0.112421 0.0333203 -0.0940239 -0.0443481 0.0452501 -0.112564 0.018659 
-0.0372287 0.250582 0.0382949 0.37268 -0.356162 0.0223497 -0.0435109 0.442519 0.190681 
-0.0817321 0.074632 -0.191172 -0.0166699 0.0840768 -0.0877905 -0.146418 0.150568 -0.186817 
-0.0997621 0.0821497 -0.123488 0.0404562 0.341814 0.375261 -0.0109673 0.174354 0.0298643 
0.123769 -0.2006 0.0346361 0.0339844 -0.113974 -0.0737712 -0.0104304 -0.0225093 -0.00454691 
-0.0458296 0.4306 0.123711 0.227387 -0.294739 0.038936 -0.0867802 0.207346 0.176547 
-0.0316556 0.0750946 -0.122114 -0.116123 0.118001 -0.199005 0.00971044 0.115592 0.0166343 
-0.14332 0.152202 -0.136918 -0.0684983 0.0494185 -0.0667386 0.000115251 -0.0264892 -0.0259491 
-0.0351653 0.376052 0.0835928 0.00153343 -0.0344062 0.0492319 0.03611 0.362984 0.305994 
0.339497 -0.377383 0.0383945 -0.0648367 0.0950642 -0.163105 0.0166943 0.0781357 -0.00898753 
-0.133791 0.138563 -0.173951 0.0635983 -0.114011 0.0843476 -0.124644 0.132187 -0.0724582 
-0.0127147 0.286732 0.0668954 0.00462814 0.264798 0.252331 -0.0502637 0.0523336 -0.0126795 
-0.0329436 0.0610576 0.0408063 0.0118956 0.383968 0.215195 0.157676 -0.222238 0.0905884 
-0.245565 0.247488 -0.233704 0.00135681 0.0694735 -0.0540163 -0.098905 0.119805 -0.186846 
0.015206 0.185611 0.0606287 -0.131909 0.129624 -0.120681 -0.00319072 0.384705 0.139511 
-0.0996523 0.112584 -0.00752442 -0.0232404 0.0646978 0.116931 -0.0510709 0.103562 0.0338469 
0.0676569 0.308031 0.302685 0.273965 -0.332516 0.0846929 0.0333853 0.106835 0.0455753 
-0.0354242 0.0877931 -0.114041 -0.00172759 0.343398 0.0913089 -0.118464 0.12362 -0.177016 
0.0285486 -0.0129013 0.169338 -0.114473 0.101536 -0.052295 0.0773449 0.318074 0.275438 
-0.0791779 0.120674 0.0399857 -0.12404 0.235943 -0.0382555 -0.0569168 0.165449 0.0860057 
0.105464 -0.124643 0.18112 0.0133222 0.261499 0.0694903 0.025477 0.07079 0.00359462 
0.0517696 0.313532 0.185724 -0.0760854 0.108105 -0.16317 -0.299456 0.419666 -0.492172 
-0.119421 0.100243 -0.13531 -0.0894286 0.0774208 0.0108418 -0.0354845 0.156692 0.164383 
0.0103036 0.270855 0.149775 -0.0713651 0.172541 0.0581886 0.206421 -0.247298 0.166772 
0.0982103 0.291114 0.250819 0.0332432 0.296631 0.113012 0.0285463 0.168551 0.0546725 
-0.0112412 0.0749953 -0.0653077 0.0156587 0.0723269 0.241312 -0.10347 0.10653 -0.179682 
-0.103563 0.0580688 -0.0735727 -0.0688233 0.0911541 0.0399197 -0.0659935 0.22918 0.076468 
-0.217661 0.283187 -0.302533 0.0804814 -0.0394208 0.277094 -0.0154607 0.26276 0.0511286 
0.102275 0.248458 0.210628 0.0259219 0.25483 0.0681386 0.0247724 0.10327 0.0217622 
-0.0580393 0.0895146 -0.133468 -0.112057 0.0776502 -0.16122 -0.0374593 0.213454 0.14865 
-0.208712 0.542084 -0.32073 -0.0773612 0.0224734 -0.016604 -0.0613562 0.158791 0.0235392 
0.160542 -0.160817 0.268574 -0.175118 0.276157 -0.260782 0.0875111 0.273787 0.173697 
0.0806529 0.202614 0.137006 0.0222058 0.192436 0.0388691 0.016376 0.121692 0.256056 
-0.00833226 0.0823819 -0.0404134 -0.0940253 0.0866002 -0.173698 -0.101831 0.0290148 -0.116527 
-0.0563801 0.229873 0.0113716 -0.0538243 0.0362419 -0.0027936 -0.219089 0.440335 -0.379469 
0.0770992 0.00857919 0.334813 0.128127 0.218865 0.200848 -0.0540098 0.254099 -0.0686159 
0.0535115 0.171678 0.0731846 0.00876553 0.134344 0.00650527 -0.0563714 0.082018 -0.110946 
-0.111366 0.0593942 -0.179659 -0.0295163 0.22294 0.0752126 -0.0766966 -0.0132687 -0.0687652 
-0.0433421 0.115301 -0.0430327 -0.0680978 0.468676 0.0687087 0.141625 -0.104903 0.356721 
-0.176141 0.320096 -0.297508 0.121769 0.122249 0.168218 0.0562285 0.25469 0.0772956 
0.0260447 0.145338 0.0261756 0.0238957 0.131203 0.206457 -0.0250488 0.10349 -0.0433287 
-0.096913 0.072925 -0.161697 -0.108756 0.0145355 -0.156664 -0.0371725 0.193419 -0.0723837 
-0.0481335 0.000816635 -0.0595148 -0.11493 0.465053 -0.137693 0.0848066 0.0141912 0.331577 
-0.0823154 0.248709 -0.130822 0.124628 0.211495 0.159752 0.0874274 0.0589677 0.108825 
-0.0056554 0.121902 -0.0132119 -0.071576 0.0901478 -0.10177 -0.119857 0.0470255 -0.183374 
-0.0145196 0.192979 -0.0176742 -0.0870864 -0.0234698 -0.121522 -0.0285551 0.0869121 -0.100851 
0.141719 -0.0916615 0.403247 -0.00681799 0.363901 0.245464 -0.115831 0.351006 -0.168962 
0.0254532 0.229178 0.0277712 0.140068 0.0905166 0.188578 0.0332715 0.108072 0.11878 
0.0416089 0.0439296 0.0489512 -0.0467972 0.107697 -0.0553393 -0.112234 0.0727184 -0.148177 
-0.122861 0.0105099 -0.178436 -0.0159166 0.158393 -0.12524 -0.0532344 -0.00347735 -0.10856 
-0.0272348 0.397569 0.0801489 0.0934297 -0.0122496 0.273889 -0.0554246 0.241521 -0.0417708 
0.105367 0.202856 0.133762 0.113399 -0.0292946 0.172318 -0.00741532 0.0531037 -0.00168827 
-0.0926503 0.0974724 -0.0988177 -0.136514 0.0458506 -0.173503 0.00316185 0.147611 -0.0771666 
-0.104532 -0.0150405 -0.156677 -0.0197393 0.0894817 -0.128173 0.148991 -0.113198 0.401892 
-0.0254046 0.380805 0.204328 -0.044712 0.356277 -0.0101544 0.0298831 0.194201 0.108379 
0.134058 0.101683 0.195287 0.0635546 -0.0713252 0.122977 0.0405967 0.0670268 0.0402187 
-0.0571605 0.0678386 -0.0446246 -0.130654 0.0802977 -0.133795 -0.141338 0.0169345 -0.178416 
0.0042176 0.150833 -0.120928 -0.0662891 0.0146901 -0.139319 0.15273 -0.14959 0.364883 
-0.0180218 0.111457 -0.131923 -0.124173 0.00444659 -0.167678 -0.152835 0.056343 -0.155478 
-0.102648 0.0770397 -0.081352 -0.000369382 0.234838 0.10568 0.09481 0.180246 0.192095 
0.00733811 -0.0545272 0.065338 0.117588 -0.0491893 0.223546 0.0200445 0.308289 0.191315 
0.020842 0.117873 -0.0624971 0.094239 -0.0522097 0.19223 -0.0827978 0.0408582 -0.15094 
0.0203252 0.167348 -0.0875567 -0.15649 0.0347051 -0.164347 -0.136241 0.0759183 -0.110914 
-0.0451105 -0.0189444 0.0138904 0.0440964 0.0321894 0.0242076 0.0766185 -0.138376 0.205783 
0.116563 0.126857 0.223219 0.0707707 0.1588 0.284484 0.00915128 0.323875 0.100506 
-0.103355 0.433264 -0.0169971 0.145741 -0.18405 0.306232 -0.0235317 0.132249 -0.12864 
-0.138939 0.030863 -0.162373 0.0383643 0.117408 0.00239456 -0.154155 0.0675895 -0.133266 
-0.0871575 0.0143726 -0.0301786 0.0276222 -0.144748 0.154985 0.100111 -0.00134394 0.24375 
0.110922 0.147334 0.353903 0.0438482 0.230794 0.194769 0.0805105 -0.0774689 0.132783 
0.0234218 0.293356 0.197875 -0.0966995 0.0661452 -0.152111 0.0286418 0.185631 -0.0659183 
-0.155584 0.0596494 -0.148843 -0.114564 0.040351 -0.0696442 -0.017318 -0.109659 0.0946741 
0.0684458 -0.117311 0.240042 0.0495108 0.0213206 0.0899284 0.105872 0.146229 0.309449 
0.115092 0.136444 0.419803 0.0439456 0.259027 0.161726 -0.218658 0.460554 -0.368426 
0.123126 -0.202123 0.247825 -0.0333619 0.141871 -0.129436 -0.138672 0.0629784 -0.157452 
0.0531598 0.132431 0.0495421 -0.127428 0.0606291 -0.105941 -0.0504611 -0.0626328 0.033931 
0.0335073 -0.157102 0.196427 0.0745243 0.080792 0.25724 0.145713 0.119085 0.525822 
0.0685615 0.220009 0.214317 0.0667287 -0.0845333 0.165171 -0.0178923 0.357598 0.084029 
-0.100031 0.0908472 -0.157422 0.0279833 0.190238 -0.0679802 -0.127261 0.0777108 -0.13798 
-0.0694198 -0.0142827 -0.0257825 0.00240152 -0.139705 0.128773 0.0597934 0.0285634 0.167161 
0.0426096 -0.0241168 0.224745 0.140262 0.124689 0.455297 0.115611 0.150767 0.444573 
0.0544667 0.215292 0.174516 0.0920841 -0.196054 0.241903 -0.312613 0.448616 -0.716792 
-0.0409984 0.143741 -0.141344 -0.113642 0.0951686 -0.162985 0.0616368 0.143999 0.051611 
-0.0763589 0.03226 -0.0823793 -0.0185977 -0.0957347 0.0515923 0.0181602 -0.0853234 0.173315 
0.0581959 0.156302 0.296987 0.0812835 0.189373 0.199219 0.176052 0.102124 0.610037 
0.0635969 -0.0769412 0.252688 -0.118082 0.410264 -0.202179 -0.083954 0.118303 -0.176009 
0.0216258 0.179827 -0.0887309 -0.0741266 0.0748804 -0.132617 -0.027608 -0.0423623 -0.0252147 
-0.000153305 -0.0890027 0.0955334 0.0702524 0.0397381 0.19344 0.0126733 0.0981513 0.195722 
0.139666 0.145531 0.551658 0.13978 0.119428 0.386693 0.0340765 0.26168 0.126923 
0.070902 -0.175279 0.31007 -0.0375136 0.14752 -0.167674 -0.0637698 0.11146 -0.172804 
-0.269691 0.367708 -0.715868 0.0628252 0.14353 0.0198655 -0.0266638 0.0117013 -0.0924287 
-0.00993337 -0.0587689 0.00444167 -0.0113085 0.0401489 0.115889 0.0616214 0.200206 0.360643 
0.189679 0.0886308 0.596668 0.0768478 0.152892 0.158897 0.0690778 -0.0661662 0.310442 
-0.135351 0.393378 -0.29468 0.0164276 0.162709 -0.122802 -0.044382 0.139493 -0.197101 
-0.0188393 0.0614067 -0.143722 -0.00926013 -0.0161697 -0.0826275 0.0768303 0.047058 0.166179 
-0.022399 0.0229749 0.0239482 -0.00601052 0.205498 0.184659 0.161396 0.138714 0.581494 
0.123056 0.108572 0.266742 0.0664375 -0.155774 0.387432 -0.0148355 0.154659 -0.195784 
0.0348106 0.257393 0.0842651 0.0586836 0.129491 -0.0284111 -0.00657858 0.102789 -0.176383 
0.000953678 0.0251018 -0.146603 -0.134904 0.300427 -0.391014 -0.0235308 0.0352114 -0.0762678 
0.186838 0.0693014 0.515496 -0.040695 0.178288 0.0593077 0.0788116 0.214655 0.399177 
0.0757965 -0.0578298 0.304766 0.0216938 0.147716 -0.157136 -0.193419 0.345124 -0.485956 
0.00854597 0.13127 -0.189421 0.104136 0.0865837 0.168056 0.0176488 0.0571929 -0.173475 
0.0777903 0.045276 0.107178 -0.0133668 0.0536337 -0.162892 0.173169 0.127959 0.55055 
-0.0517506 0.160765 -0.0494862 -0.00366883 0.266435 0.189331 0.0698201 -0.143729 0.407654 
-0.00931882 0.331245 -0.0412091 0.0256034 0.140234 -0.180459 0.0548074 0.106381 -0.0750672 
0.0367562 0.0763519 -0.161312 0.172244 0.0432377 0.397066 0.00716055 0.0617543 -0.207236 
0.0959142 0.215074 0.381443 -0.0466059 0.15142 -0.146771 -0.0509772 0.276716 0.027839 
-0.0335459 0.330097 -0.124858 0.0790233 -0.0536177 0.246934 0.0847702 0.0990575 0.109147 
0.043305 0.122068 -0.144719 0.0541663 0.0814811 -0.120623 -0.150951 0.256576 -0.404195 
0.17562 0.10588 0.486354 0.0329386 0.0542296 -0.190319 0.0735288 0.0304882 0.0431946 
-0.0266886 0.130617 -0.211839 0.0148789 0.279201 0.172945 -0.0651762 0.262616 -0.0888001 
0.0723591 -0.136097 0.35935 -0.0574871 0.334167 -0.180688 0.0586467 0.0735752 -0.0789426 
0.151414 0.0120271 0.266042 0.0665753 0.0721349 -0.0673604 0.057438 0.033255 -0.116931 
0.00298655 0.0905559 -0.222423 0.107937 0.204701 0.326261 -0.0555865 0.225902 -0.164235 
-0.0338729 0.299066 0.00837806 0.0257332 0.427029 0.0204856 0.075749 -0.058739 0.166203 
0.0539013 0.199196 0.0483884 0.0720292 0.046977 -0.0139334 0.0754915 0.00357993 -0.0123232 
0.0673446 0.0014736 0.0139535 0.17105 0.0612696 0.398366 -0.0704794 0.192615 -0.196438 
0.0330986 0.0397457 -0.174184 -0.0298022 0.164115 -0.190927 0.0369489 0.265208 0.123106 
-0.0485873 0.275023 -0.0945671 -0.0767936 0.269542 -0.23284 0.0684911 -0.133022 0.265392 
0.119378 -0.00121393 0.128404 0.0702554 0.00552533 0.0349452 0.084221 -0.0302115 0.0932993 
0.0563331 -0.0121095 -0.07843 0.00181499 0.0888901 -0.173367 0.119131 0.165242 0.273397 
-0.0388815 0.21494 -0.136665 -0.00851519 0.275506 -0.0340199 0.0644197 0.53289 0.100442 
0.0641109 -0.0802036 0.112275 0.0229366 0.293581 -0.0280443 0.0629948 -0.0482293 0.0811994 
0.069644 -0.0616307 0.0441493 0.0826409 -0.0655704 0.178176 0.0293472 0.0183624 -0.126592 
0.154361 -0.0168455 0.254717 -0.0157463 0.132113 -0.128016 -0.0243396 0.238234 -0.116167 
0.0550986 0.233195 0.0754443 -0.0125774 0.20997 -0.0403934 -0.0452705 0.179537 -0.140849 
0.0527008 -0.141815 0.184417 0.0643488 0.151722 0.0273633 0.0729097 -0.107467 0.167929 
0.0477046 -0.0398995 -0.0569677 0.0104303 0.0465958 -0.0900267 0.0708287 -0.100239 0.227469 
-0.0186579 0.165581 -0.12839 0.129065 0.0766796 0.237166 0.0103335 0.244676 -0.0779114 
0.0901097 0.614511 0.145665 0.0514605 -0.116905 0.18309 -0.007107 0.225694 -0.072753 
0.0557708 -0.0903671 0.0385898 0.0317582 -0.0220297 -0.0478865 0.0675425 -0.147081 0.271215 
-0.000441462 0.0721354 -0.0885867 0.109192 -0.0272049 0.0727804 -0.0095126 0.207723 -0.15038 
0.0741222 0.162128 0.085539 0.00397995 0.190137 0.00836685 0.0321539 -0.168876 0.224311 
0.055946 -0.172274 0.332266 0.0444621 -0.0667342 -0.0126421 0.0424387 0.275705 0.0031454 
0.0544254 -0.13896 0.155786 0.0219087 -0.0238624 -0.0219698 -0.00864717 0.133957 -0.146527 
0.0296775 0.193024 -0.0495072 0.124501 -0.0343777 0.145227 0.103938 0.657946 0.167898 
0.0406005 -0.184373 0.332685 0.0156313 0.110971 0.0258172 0.048096 -0.0987707 0.0303206 
0.0463063 -0.184623 0.278982 0.0404349 -0.098174 0.0399459 0.00627206 0.033921 -0.0853115 
0.00774804 0.172532 -0.110995 0.059812 0.185382 0.00841233 0.092943 0.0554207 0.120242 
0.0288027 0.28056 0.0669898 0.043258 -0.135707 0.107387 0.049813 -0.131794 0.0714844 
0.0203203 -0.215125 0.3607 0.0524572 0.151383 0.0890104 0.0283362 -0.0788336 0.0095443 
0.00459929 0.113665 -0.106417 0.0551456 0.12269 0.0542337 0.0317066 -0.216583 0.358239 
0.0823915 -0.00160861 0.00988504 0.111516 0.677965 0.180268 0.027075 0.190332 0.0742611 
0.0322193 -0.178325 0.209468 0.0496108 -0.131022 0.0734079 0.049189 -0.179639 0.105655 
0.0150807 0.0238155 -0.0510986 0.0346789 0.13902 0.0263638 0.0766759 0.243913 0.0939062 
0.088175 -0.0259024 0.0549489 0.0424964 -0.128722 0.0803115 0.011236 -0.234629 0.376973 
0.0607264 -0.235068 0.166481 0.0656136 0.0652763 0.160276 0.0343612 -0.0900886 0.0404255 
0.0303793 0.110182 0.0374549 0.0662194 0.0514593 0.0802036 0.0179028 -0.205281 0.270661 
0.0635263 0.198856 0.0242021 0.113886 0.679597 0.185444 0.030763 -0.143584 0.11765 
0.0424349 0.293273 0.104284 0.0602948 -0.229929 0.17453 0.0561244 -0.212491 0.146835 
0.0502518 0.115802 0.112749 0.0573395 0.0401791 -0.0223352 0.0365918 0.0449759 0.075196 
0.113047 0.11409 0.245523 0.0518363 -0.189738 0.14794 0.00474737 -0.205958 0.265265 
0.0719154 -0.310201 0.235502 0.10573 0.228168 0.171378 0.0523593 0.0237694 0.0124253 
0.0494433 0.135987 0.165325 0.0494085 -0.0532432 0.131884 0.01973 -0.150746 0.138619 
0.0432084 0.155755 0.122228 0.112795 0.667313 0.187145 0.0398291 -0.152322 0.119948 
0.0749611 -0.344345 0.273915 0.127803 0.0401405 0.311122 0.0562213 0.172329 0.0198932 
0.0416318 0.0849716 0.0713937 0.0657346 -0.177915 0.203065 0.0572842 0.113396 0.221747 
0.0653 -0.303826 0.252867 0.0154136 -0.137597 0.123682 0.108779 0.643884 0.185846 
0.0479654 0.189739 0.134572 0.155384 0.164485 0.33238 0.0807537 -0.305603 0.278847 
0.0328923 0.0934102 -0.0294323 0.0419591 0.141535 0.15581 0.0679545 0.0452999 0.266819 
0.0408559 -0.177204 0.152488 0.1387 0.00854642 0.351302 0.0862744 -0.392475 0.330436 
0.0210712 0.093142 -0.00420611 0.114348 0.221492 0.209194 0.0782857 -0.0677947 0.296791 