# vtk DataFile Version 3.0
vtk output
ASCII
DATASET POLYDATA
POINTS 724 float
9.85976 -10.0451 10.7094 10.0246 -11.1773 10.5735 9.72094 -8.76166 10.9907 
10.2059 -12.168 10.553 9.63313 -7.5535 11.368 9.88089 -9.23996 11.2287 
10.4067 -13.0498 10.6268 9.58421 -6.3647 11.8332 10.0312 -10.2169 11.136 
9.80406 -8.18365 11.585 10.1889 -11.0873 11.1103 10.3459 -11.9347 11.0821 
10.6001 -13.7547 10.7726 9.74181 -7.13097 11.9631 9.57122 -5.21037 12.3632 
9.99648 -9.1064 11.6848 10.515 -12.5071 11.2382 10.1703 -10.0911 11.6554 
9.70841 -6.06679 12.412 9.91768 -7.95819 12.0955 10.7954 -14.3455 10.9811 
9.59456 -4.05555 12.9616 10.3603 -11.0799 11.6471 10.6968 -13.1502 11.3753 
9.69085 -4.95114 12.8979 9.86168 -6.81847 12.5381 10.0978 -8.85143 12.176 
10.5653 -11.8472 11.799 10.9914 -14.8335 11.2472 10.2709 -9.78946 12.1742 
9.64439 -3.11227 13.5011 9.82296 -5.62015 13.0257 10.0272 -7.65279 12.635 
10.8853 -13.7129 11.5711 9.76057 -4.24167 13.4521 10.4527 -10.6195 12.2373 
10.7733 -12.569 11.9654 10.1961 -8.52219 12.6993 9.97338 -6.43576 13.1113 
9.72563 -2.1718 14.0933 11.193 -15.2399 11.5769 11.0809 -14.2581 11.795 
10.653 -11.3703 12.385 9.78806 -3.22488 13.9492 10.3635 -9.37369 12.7405 
9.91585 -5.12108 13.5749 10.1349 -7.28606 13.1899 10.9919 -13.2854 12.1473 
10.5456 -10.166 12.8333 9.90499 -3.98651 14.0417 10.0785 -6.01287 13.6686 
10.299 -8.13477 13.2572 10.8666 -12.1409 12.5362 11.3681 -15.5222 11.9066 
9.85387 -2.24389 14.5035 9.83608 -1.24615 14.7356 11.2311 -14.2815 12.2045 
10.4669 -8.95843 13.3247 10.7476 -10.9451 12.9684 10.0464 -4.80027 14.1463 
10.2459 -6.89353 13.753 11.0957 -13.0285 12.633 9.93929 -2.87763 14.5777 
11.4259 -14.8141 12.436 10.6493 -9.74967 13.426 10.4138 -7.74904 13.831 
10.2036 -5.66238 14.2378 10.9674 -11.7981 13.0832 10.0444 -3.59928 14.649 
9.96623 -1.5406 15.0903 9.95243 -0.448534 15.3401 11.5639 -15.7645 12.3185 
11.2918 -13.6683 12.7814 10.5843 -8.56868 13.9142 10.8508 -10.5649 13.5403 
10.3709 -6.53608 14.3257 10.1758 -4.41065 14.7255 10.0547 -2.26017 15.163 
11.183 -12.546 13.2321 11.4843 -14.2179 12.9748 10.0682 0.250852 15.9131 
10.0838 -0.948742 15.649 11.6348 -15.0624 12.879 10.7655 -9.3689 14.0124 
10.5412 -7.38911 14.4129 10.3301 -5.28109 14.8081 10.1622 -3.09028 15.2146 
11.0641 -11.358 13.6755 11.7605 -15.9347 12.7747 11.4001 -13.2444 13.3972 
10.177 -1.81509 15.7001 10.7132 -8.20678 14.5029 10.2971 -3.9742 15.2792 
10.499 -6.16975 14.8972 10.9614 -10.1561 14.1309 11.2905 -12.1544 13.8224 
10.1799 -0.0264397 16.2168 11.6311 -14.1295 13.4587 10.2092 1.00581 16.5865 
10.2899 -2.70508 15.748 11.8103 -15.0476 13.3816 10.4557 -4.89179 15.3611 
10.6728 -7.03191 14.9916 10.8921 -8.99216 14.6048 10.2374 -0.750927 16.2145 
11.1758 -10.9723 14.2562 11.9415 -16.0297 13.2285 11.5356 -13.0777 13.9092 
10.429 -3.62035 15.8141 10.3201 -1.56119 16.2351 10.6285 -5.80243 15.4587 
10.8478 -7.84863 15.0899 11.0847 -9.78502 14.7126 11.414 -11.8923 14.3534 
11.7725 -14.0134 13.9418 10.3173 0.459012 16.8043 10.3433 1.6618 17.2132 
10.432 -2.42604 16.2763 11.9673 -14.9287 13.8934 10.5897 -4.54059 15.9059 
10.8066 -6.67412 15.5633 11.0267 -8.63946 15.1885 10.3739 -0.407965 16.7577 
12.1071 -16.0683 13.6678 11.2972 -10.6442 14.8063 11.6585 -12.8373 14.4219 
10.4429 1.33697 17.4555 10.5717 -3.30344 16.3538 10.4583 -1.27646 16.7562 
10.7637 -5.44836 16.014 10.9853 -7.50042 15.6661 11.2156 -9.44629 15.2781 
11.8875 -13.7252 14.4606 11.5265 -11.5438 14.8904 10.4691 0.600889 17.3459 
12.1508 -15.2571 14.2098 10.4978 2.40013 17.9393 10.5753 -2.10659 16.8149 
10.7314 -4.20073 16.4539 10.9436 -6.32154 16.1257 11.1648 -8.30149 15.7586 
11.7576 -12.4233 14.9663 10.5191 -0.23733 17.2719 11.4191 -10.2767 15.3632 
12.0831 -14.3463 14.5858 12.2944 -16.0611 14.1911 10.5868 1.84353 18.0735 
10.7168 -2.96337 16.9005 10.9042 -5.09556 16.5673 10.6078 -0.99082 17.3042 
11.1242 -7.15382 16.2296 11.9712 -13.159 15.0675 11.3494 -9.09226 15.844 
11.6372 -11.1203 15.4509 10.6015 0.831627 17.8416 12.3042 -15.0554 14.7534 
10.6394 3.0983 18.6157 10.8768 -3.84654 17.0048 10.7245 -1.776 17.3677 
11.0832 -5.96339 16.6807 12.1779 -13.8725 15.1564 11.3037 -7.9496 16.3231 
11.5458 -9.88542 15.9308 11.8606 -11.9219 15.5565 10.6675 0.0988279 17.8357 
12.4654 -16.0108 14.6943 10.7014 1.76166 18.4294 10.7434 2.76041 18.8564 
10.8659 -2.61038 17.4539 11.0482 -4.73152 17.1183 11.2632 -6.79069 16.7857 
10.7576 -0.629364 17.8681 11.4867 -8.72319 16.4117 12.0846 -12.7086 15.6579 
11.7574 -10.6777 16.031 12.3608 -14.3669 15.3322 10.7569 1.11673 18.4212 
12.5051 -15.161 15.2502 10.7966 3.88096 19.3516 11.0258 -3.48059 17.5574 
11.2252 -5.59108 17.231 10.874 -1.4025 17.9262 11.4432 -7.57909 16.8828 
11.6806 -9.4901 16.5065 11.9824 -11.4864 16.1369 12.2947 -13.3549 15.8023 
10.8237 0.456906 18.4203 12.6475 -15.9137 15.2579 10.8401 2.27658 19.032 
11.1966 -4.35766 17.669 11.0157 -2.23006 18.0084 11.404 -6.41127 17.3372 
11.6273 -8.34429 16.9788 10.8988 3.40346 19.542 10.912 -0.246148 18.4399 
12.5046 -14.1545 15.856 11.8912 -10.2767 16.6078 12.2081 -12.2427 16.2658 
10.9015 1.60829 19.0221 12.6684 -14.9601 15.8228 10.9573 4.62309 20.0403 
11.1774 -3.09956 18.1087 11.372 -5.21024 17.7802 11.0265 -1.00993 18.4861 
11.5844 -7.19651 17.4385 11.8228 -9.11287 17.0777 12.1153 -11.066 16.7242 
10.9718 0.918617 19.0038 12.4366 -13.0768 16.3495 10.9806 2.8081 19.6335 
12.8143 -15.7827 15.8051 11.3497 -3.97537 18.2188 11.1687 -1.84088 18.5592 
11.5489 -6.02613 17.8866 12.6465 -13.9193 16.3862 11.7711 -7.9681 17.5389 
11.0627 0.19119 19.0059 11.0554 4.04149 20.1878 12.0344 -9.8958 17.1851 
12.3496 -11.9223 16.8197 11.0429 2.10396 19.6062 12.8206 -14.7645 16.3649 
11.1263 5.32322 20.6888 11.3329 -2.71182 18.6564 11.5249 -4.82747 18.3287 
11.1797 -0.604021 19.0349 11.7292 -6.81514 17.9891 11.1174 1.37614 19.5695 
11.9698 -8.74593 17.6429 12.5782 -12.8054 16.8843 12.2619 -10.7369 17.2831 
11.1252 3.3545 20.2206 12.9688 -15.6196 16.3422 11.325 -1.44664 19.1026 
11.5078 -3.59053 18.7655 11.2144 0.588902 19.5472 11.7003 -5.64603 18.4339 
12.7871 -13.686 16.9085 11.9177 -7.5973 18.0914 11.1846 2.58889 20.1663 
12.185 -9.56528 17.7431 11.2217 4.65835 20.8014 12.4953 -11.6272 17.3625 
12.9641 -14.5541 16.8942 11.3388 -0.221505 19.5737 11.4926 -2.32223 19.1985 
11.2628 1.74648 20.0889 11.6839 -4.44835 18.8745 11.2967 5.9823 21.2935 
11.8795 -6.44186 18.5347 12.1199 -8.40377 18.1918 12.7204 -12.5383 17.4132 
11.2783 3.86845 20.7757 12.4135 -10.4338 17.8323 13.1128 -15.4252 16.8723 
11.3275 2.88874 20.6384 11.3716 0.948339 20.0755 11.4887 -1.066 19.6414 
11.6707 -3.20642 19.307 12.9254 -13.4382 17.4309 11.8588 -5.27442 18.9777 
12.0683 -7.24205 18.6323 12.3383 -9.25016 18.2886 12.6441 -11.3423 17.9022 
11.3938 5.19971 21.3675 13.1012 -14.3176 17.4221 11.4175 4.00526 21.164 
11.4182 2.07822 20.5983 11.505 0.142433 20.1088 11.6589 -1.94109 19.7369 
11.8489 -4.07308 19.4158 12.0362 -6.08199 19.0735 12.8636 -12.2634 17.9451 
11.4596 6.59476 21.846 12.2719 -8.06988 18.7286 12.5676 -10.1381 18.3753 
13.2477 -15.2003 17.3979 11.5231 5.01569 21.643 11.4904 3.19511 21.1282 
11.5367 1.3003 20.6034 11.6599 -0.696062 20.1788 13.0626 -13.1695 17.9601 
11.839 -2.82736 19.8451 12.0234 -4.91026 19.5166 12.2231 -6.89495 19.165 
12.7951 -11.0545 18.4432 12.4921 -8.93587 18.8243 11.583 6.09583 22.0233 
13.2344 -14.0521 17.9563 11.5873 2.43237 21.1179 11.5977 4.29529 21.6551 
11.6774 0.504847 20.6438 11.8317 -1.56643 20.2741 12.0182 -3.70047 19.9528 
12.1986 -5.72797 19.6079 13.0084 -11.9757 18.4845 12.4257 -7.73566 19.2567 
12.7218 -9.83717 18.9137 11.6369 7.23318 22.4254 13.3748 -14.9475 17.9206 
11.6997 5.47025 22.1465 11.7095 1.66736 21.1334 11.6745 3.56108 21.6449 
11.8367 -0.326865 20.7157 13.1999 -12.8791 18.5009 12.0119 -2.45063 20.3813 
12.1922 -4.54617 20.0516 12.3824 -6.54901 19.6933 12.9464 -10.7575 18.985 
12.6455 -8.61415 19.3521 11.7651 6.6072 22.5612 13.3658 -13.756 18.5045 
11.7839 4.7395 22.1637 11.7702 2.81543 21.6429 11.8547 0.876603 21.1777 
12.0096 -1.19211 20.8109 12.1904 -3.32524 20.4873 12.3654 -5.37213 20.1396 
13.1536 -11.6744 19.0306 12.5816 -7.39613 19.7805 12.8738 -9.52434 19.4452 
13.4942 -14.6709 18.4391 11.8117 7.80111 22.969 11.8775 5.91661 22.6372 
11.8655 3.99185 22.1583 11.8917 2.05073 21.6617 13.3376 -12.5689 19.0539 
12.0178 0.0488111 21.2517 12.1882 -2.07183 20.9168 12.3635 -4.1762 20.5848 
12.5457 -6.19821 20.2211 13.0949 -10.4466 19.5241 12.7974 -8.27981 19.8736 
11.9398 7.09685 23.0694 13.4964 -13.4306 19.0715 11.9701 5.17642 22.6531 
11.9616 3.23053 22.1598 12.0382 1.25893 21.7091 12.1916 -0.811989 21.3475 
12.3645 -2.94432 21.0216 12.535 -5.00808 20.6711 13.2963 -11.3581 19.5788 
12.7395 -7.04696 20.3029 13.0208 -9.19233 19.9693 13.6042 -14.378 18.9454 
11.995 8.31552 23.5069 12.0515 6.36118 23.1156 12.0596 4.41911 22.6538 
12.0819 2.45186 22.1825 12.2031 0.433028 21.7853 13.4729 -12.2421 19.615 
12.3677 -1.68638 21.4532 12.536 -3.79671 21.118 12.7115 -5.83739 20.7494 
13.2362 -10.1117 20.056 12.9474 -7.9278 20.3918 13.7024 -14.0796 19.4254 
13.1618 -8.83435 20.4874 12.8982 -6.68301 20.8269 12.7056 -4.63181 21.2038 
12.5406 -2.55489 21.5575 12.1515 5.60459 23.1263 12.1597 3.64576 22.6629 
12.3766 -0.422535 21.8829 12.2277 1.65194 22.234 12.1169 7.56199 23.5711 
13.4305 -11.011 20.1234 13.6258 -13.0829 19.6581 13.0953 -7.55408 20.9107 
13.3682 -9.74337 20.5804 12.8781 -5.46143 21.2808 12.709 -3.40652 21.6536 
12.5496 -1.29052 21.9899 13.5986 -11.8699 20.1795 12.3921 0.826034 22.3144 
12.2807 2.85562 22.6939 12.2512 4.83785 23.1327 12.2247 6.79414 23.5894 
12.1915 8.79185 24.0507 13.7956 -13.7558 19.9122 13.2972 -8.44688 21.0037 
13.0569 -6.30051 21.3553 13.5537 -10.6229 20.6635 12.8758 -4.24192 21.7396 
12.7183 -2.1552 22.095 12.5633 -0.0218877 22.4156 12.4246 2.04824 22.7529 
12.3601 4.05674 23.1532 12.329 6.02076 23.5907 13.7436 -12.6572 20.2599 
12.3039 8.01067 24.0814 13.2418 -7.1577 21.4348 13.4916 -9.33776 21.1014 
13.0439 -5.06876 21.8169 12.8827 -3.00497 22.1926 12.7324 -0.883774 22.525 
[...]
POINT_DATA 724
VECTORS velocity double
0.865004 -0.823506 1.28988 1.01111 -0.567343 1.41015 0.766212 -1.31177 1.15936 
1.16927 -0.421263 1.47653 0.728285 -1.86618 1.09414 0.724207 -1.25038 1.05864 
1.30348 -0.25206 1.45458 0.73496 -2.35814 1.13717 0.795278 -0.974875 1.13108 
0.662104 -1.73972 0.936354 0.904778 -0.85896 1.19715 1.05582 -0.77992 1.26129 
1.38339 -0.0347956 1.34559 0.653759 -2.21019 0.915989 0.794368 -2.75071 1.2727 
0.621105 -1.46917 0.854985 1.14074 -0.808221 1.20926 0.663442 -1.22819 0.891537 
0.681857 -2.59409 0.99867 0.574894 -2.00256 0.738807 1.41896 0.218312 1.17304 
0.932133 -3.12092 1.42997 0.784168 -1.15848 0.953603 1.24374 -0.72006 1.13557 
0.764423 -2.8891 1.16667 0.591314 -2.47708 0.761799 0.519128 -1.72934 0.650307 
0.897471 -1.26168 0.930771 1.41946 0.47251 0.964142 0.52565 -1.48784 0.658172 
1.12832 -3.51278 1.55308 0.651781 -2.79843 0.916899 0.510661 -2.28644 0.583236 
1.31281 -0.562543 1.00351 0.821124 -3.06647 1.19579 0.584322 -1.44865 0.675281 
1.02995 -1.32624 0.880971 0.444672 -2.01458 0.488401 0.558895 -2.71215 0.679624 
1.40483 -4.11272 1.68293 1.39451 0.711484 0.737291 1.35724 -0.279527 0.835243 
0.681706 -1.57558 0.670413 1.02012 -3.40421 1.34932 0.413317 -1.76329 0.464268 
0.646992 -2.91619 0.889729 0.484546 -2.57013 0.505954 1.16359 -1.21522 0.793502 
0.429998 -1.66926 0.467567 0.781749 -3.08013 1.05822 0.548734 -2.88395 0.656532 
0.416511 -2.32282 0.40666 0.834988 -1.72728 0.664232 1.36003 0.894296 0.548531 
1.29323 -3.98023 1.49993 1.72161 -4.96838 1.82034 1.32167 -0.476841 0.673469 
0.362338 -2.03703 0.365869 0.510685 -1.75354 0.486149 0.616584 -2.95205 0.807433 
0.490032 -2.82354 0.50355 1.04677 -1.64156 0.64881 1.00955 -3.46204 1.21831 
1.34348 0.0119616 0.515163 0.346214 -1.84355 0.363399 0.433169 -2.62181 0.415504 
0.53596 -2.98486 0.63515 0.681765 -1.94506 0.525524 0.758853 -3.08317 0.945519 
1.47662 -4.5316 1.5555 1.98998 -5.87691 1.9691 1.31529 1.07141 0.366728 
1.17482 -1.33932 0.583754 0.371233 -2.30576 0.371025 0.399912 -1.82542 0.393408 
0.505154 -3.01699 0.537571 0.586038 -2.93756 0.729561 1.0993 -3.7344 1.20526 
0.868127 -2.03964 0.545809 1.25231 -0.878259 0.495561 2.21141 -6.74669 2.18686 
1.6037 -5.05957 1.60486 1.31962 0.209317 0.376547 0.327561 -1.99849 0.357833 
0.472509 -2.88154 0.484457 0.514717 -3.01525 0.609578 0.766129 -3.12987 0.878324 
0.533177 -1.98355 0.448087 1.26985 1.2227 0.234161 1.04053 -1.87137 0.540953 
1.11301 -3.91677 1.15331 0.415587 -2.5556 0.44781 0.552576 -2.89015 0.65173 
0.510497 -3.13596 0.57219 0.338456 -1.83807 0.37658 0.730265 -2.16055 0.515768 
1.9294 -6.17967 1.93185 1.21229 -1.10605 0.478952 2.44493 -7.69863 2.60578 
0.728582 -3.13654 0.788073 1.28868 0.130533 0.340355 0.475894 -2.97917 0.561135 
0.506533 -3.07664 0.56502 0.352876 -2.15754 0.421351 1.46956 -5.00216 1.47276 
0.435915 -1.89179 0.434653 1.23005 1.33736 0.169843 0.97914 -2.04184 0.563877 
0.496278 -2.82498 0.560613 1.00496 -3.87109 1.02798 0.489401 -3.16624 0.574591 
0.463738 -2.76714 0.546163 0.322977 -1.83969 0.415296 0.644932 -2.10338 0.534318 
1.17245 -1.28746 0.524551 1.98276 -6.63145 2.11925 2.63942 -8.44592 3.16021 
0.635057 -3.07108 0.675431 1.25473 -0.0447289 0.38789 0.418558 -2.90603 0.492843 
0.510311 -3.17671 0.612874 0.390933 -2.30104 0.508753 1.40058 -5.11643 1.4634 
1.19408 1.4179 0.163332 0.377112 -1.74964 0.454306 0.901914 -2.10463 0.621565 
2.2987 -7.72527 2.81406 0.417096 -2.74487 0.469279 0.889727 -3.83054 0.940841 
0.439374 -3.11863 0.539209 0.484923 -2.89704 0.617064 0.327841 -1.84664 0.473585 
1.09957 -1.55449 0.624489 0.544563 -1.90925 0.553693 1.78655 -6.40917 2.08541 
1.22618 0.463763 0.365572 2.80275 -9.02186 3.92654 0.526471 -3.0054 0.586164 
0.345671 -2.81021 0.419241 0.474127 -3.16966 0.609372 0.41307 -2.40011 0.57843 
0.771676 -2.03229 0.668926 1.21038 -4.91168 1.37732 0.331571 -1.59972 0.481037 
1.17199 -0.801968 0.582681 1.14865 1.47347 0.208759 2.32874 -8.02814 3.27572 
0.32179 -2.65587 0.392366 0.367206 -3.01577 0.479448 0.739072 -3.73608 0.869311 
0.464336 -2.92248 0.635818 0.947962 -1.821 0.732639 0.333314 -1.86697 0.527231 
0.437181 -1.63372 0.55732 1.65167 -6.31326 2.15615 1.17396 0.254641 0.485742 
2.8618 -9.17039 4.66437 0.261091 -2.70103 0.353179 0.394564 -2.92217 0.516384 
0.404465 -3.0747 0.562715 1.06403 -1.22538 0.7234 0.403769 -2.43687 0.608633 
0.298392 -1.49019 0.508706 0.610814 -1.77313 0.675135 1.08429 -4.89402 1.42889 
1.09495 1.4834 0.280769 2.01024 -7.42721 3.06861 2.47649 -8.51408 4.2263 
0.209453 -2.56039 0.332399 0.284132 -2.88645 0.415323 0.404005 -2.85123 0.603757 
0.606144 -3.70312 0.869331 0.324302 -1.87862 0.559861 0.79438 -1.74845 0.77515 
0.346147 -1.37639 0.555602 1.08262 -0.574941 0.682627 1.47005 -6.1439 2.25874 
1.09264 0.508424 0.522735 2.85798 -8.90104 5.41614 0.168003 -2.59031 0.302519 
0.317968 -2.93214 0.49648 0.260766 -2.85891 0.485309 0.357884 -2.39483 0.593568 
0.271415 -1.42474 0.534568 0.476713 -1.46751 0.662032 0.902156 -1.4149 0.804608 
0.946165 -4.85307 1.52878 1.01451 1.44389 0.357484 1.95068 -7.50265 3.50684 
0.20093 -2.75904 0.364087 0.0878328 -2.46982 0.293395 0.319054 -2.71457 0.54072 
0.290957 -1.84882 0.562874 2.40252 -8.31068 4.79683 0.478848 -3.68724 0.922233 
0.975528 -0.652178 0.736543 0.284576 -1.19889 0.567985 0.628 -1.52576 0.767499 
1.39877 -6.26302 2.59818 0.982129 0.366886 0.583371 2.88236 -8.4069 6.02673 
0.0696479 -2.48584 0.26807 0.233955 -2.78748 0.436808 0.133733 -2.82156 0.49339 
0.283658 -2.28174 0.544085 0.241353 -1.37021 0.554555 0.372567 -1.20743 0.660469 
0.865493 -4.96372 1.75909 0.77005 -1.32401 0.811153 1.84842 -7.41143 3.91939 
0.910672 1.35716 0.395027 0.123947 -2.65008 0.331936 -0.0324032 -2.39929 0.276451 
0.23241 -2.56199 0.47489 0.844652 -0.692091 0.740149 0.233931 -1.76206 0.538181 
0.387121 -3.75788 1.05394 2.36726 -7.94626 5.28329 0.244896 -1.09081 0.601779 
0.513777 -1.30438 0.76575 1.29216 -6.2858 2.92805 0.848872 0.259132 0.577736 
2.94906 -7.89922 6.4252 -0.0278547 -2.39866 0.247614 0.16649 -2.67343 0.399042 
0.0289567 -2.83099 0.543642 0.201094 -2.13669 0.482887 0.763629 -5.03395 1.99576 
0.20287 -1.30261 0.565234 0.6424 -1.19908 0.797032 0.31798 -1.05099 0.702662 
1.76253 -7.20038 4.28852 0.784027 1.23298 0.378021 -0.136293 -2.3679 0.284281 
0.0562978 -2.56588 0.31553 0.283781 -3.79668 1.1817 0.164944 -2.44004 0.428335 
0.706714 -0.686693 0.706164 0.165462 -1.64154 0.497567 1.16927 -6.20198 3.20419 
0.221384 -1.02456 0.654351 2.39466 -7.53523 5.62297 0.435118 -1.13718 0.797185 
0.702229 0.163941 0.523277 -0.0624728 -2.86066 0.611041 -0.114122 -2.3434 0.240504 
0.609245 -4.9566 2.12342 0.120952 -2.60021 0.383452 2.96253 -7.44465 6.49805 
0.132788 -2.0121 0.432506 0.158388 -1.21838 0.565526 0.535992 -1.0794 0.797218 
1.71746 -6.9071 4.54002 0.296714 -0.973852 0.785989 0.641041 1.08449 0.309981 
0.985963 -5.90484 3.21947 0.159023 -3.78679 1.27183 -0.214912 -2.38271 0.313821 
0.000932074 -2.50982 0.308983 0.576066 -0.66559 0.667108 0.127559 -2.37218 0.407807 
0.103634 -1.52896 0.456793 0.204627 -0.983639 0.711181 0.395148 -1.04059 0.877569 
2.40109 -7.14763 5.69098 0.555023 0.0754536 0.448484 1.50552 -6.46334 4.30572 
0.433777 -4.79645 2.16071 -0.145153 -2.90375 0.678228 -0.176983 -2.33532 0.249029 
0.0960686 -2.56267 0.381731 0.0943054 -1.94319 0.404927 0.461954 -0.991545 0.839344 
2.84709 -7.05226 6.23439 0.114687 -1.14318 0.555351 0.297169 -0.95643 0.893159 
0.49294 0.926265 0.211275 2.01726 -6.695 5.08352 0.821982 -5.5856 3.15383 
0.028539 -3.75937 1.3248 -0.265895 -2.44207 0.35868 0.467993 -0.643902 0.656189 
-0.0368838 -2.48873 0.310962 0.120267 -2.3554 0.407429 0.063435 -1.46507 0.426798 
0.388066 -1.01126 0.99948 0.188089 -0.963647 0.753132 2.47566 -6.86697 5.66361 
0.422296 -0.00318499 0.387332 0.28776 -4.6427 2.15459 1.35659 -6.06264 4.06798 
-0.218836 -2.9634 0.734561 -0.209258 -2.37905 0.274423 0.0886541 -2.55325 0.387051 
0.0899034 -1.93892 0.3998 0.424529 -0.947561 0.932516 0.0797337 -1.10304 0.535932 
0.304237 -0.978299 0.992229 2.58333 -6.6924 5.6885 0.353639 0.773101 0.112458 
1.93374 -6.43413 4.81157 -0.0837005 -3.74555 1.3441 0.723687 -5.32206 3.04264 
-0.29333 -2.53684 0.409176 0.393532 -0.631128 0.695988 -0.0522512 -2.50873 0.324682 
0.136433 -2.37474 0.418506 0.0526959 -1.4674 0.412114 0.399211 -1.03364 1.13163 
0.168183 -0.966216 0.763919 2.23767 -6.61574 5.13409 0.317445 -0.0693495 0.370653 
1.3168 -5.84628 3.85928 0.198872 -4.52491 2.09822 -0.279542 -3.04337 0.769396 
-0.211864 -2.46613 0.313928 0.0962028 -2.57019 0.399792 0.115039 -1.98618 0.411479 
0.416541 -0.946909 1.05856 0.0607591 -1.11387 0.511399 0.303176 -1.02099 1.04822 
0.236639 0.636487 0.0446836 2.28121 -6.44152 5.12152 1.7624 -6.265 4.35624 
0.702553 -5.17383 2.88904 -0.157217 -3.76042 1.31942 0.354135 -0.632921 0.785812 
-0.304003 -2.65672 0.452503 -0.0436561 -2.56854 0.354114 0.167717 -2.41677 0.437975 
0.0717229 -1.53015 0.413416 0.408567 -1.08553 1.22931 0.14574 -0.994257 0.738014 
1.94651 -6.4688 4.55315 0.247785 -0.121916 0.413435 1.22255 -5.7295 3.48983 
0.177633 -4.47783 1.98738 -0.318838 -3.15122 0.770276 -0.192339 -2.58139 0.359631 
0.11757 -2.61502 0.426456 0.160346 -2.06441 0.436398 0.42026 -0.978966 1.1759 
0.0623779 -1.17694 0.488863 0.284803 -1.07017 1.0386 0.150803 0.523712 0.0275587 
2.0179 -6.2733 4.68655 1.52011 -6.20079 3.80904 0.670065 -5.11237 2.60487 
-0.178069 -3.8268 1.24484 -0.301549 -2.80202 0.475281 0.338936 -0.6509 0.896305 
-0.0142501 -2.65805 0.399346 0.207425 -2.47655 0.470757 0.114758 -1.63398 0.431451 
0.398502 -1.1449 1.25381 0.125667 -1.04817 0.683657 0.0966213 0.436029 0.0598076 
0.248999 -1.11695 0.96335 0.0854157 -1.28103 0.477995 0.215722 -2.15909 0.477377 
0.151737 -2.68647 0.473871 1.05406 -5.7246 3.00519 0.181422 -4.49915 1.78 
-0.160029 -2.71655 0.399629 -0.325526 -3.30624 0.730492 1.654 -6.38984 4.03374 
0.415767 -1.03199 1.24017 0.20922 -0.160703 0.500715 0.115129 -1.12476 0.620874 
0.360936 -1.19495 1.18951 0.172933 -1.75979 0.470351 0.252059 -2.55537 0.526077 
0.0288446 -2.76559 0.453698 0.333014 -0.698131 0.992535 -0.283963 -2.98956 0.468124 
-0.157791 -3.95386 1.10304 0.584443 -5.1575 2.20553 1.23915 -6.21346 3.25889 
1.82549 -6.1235 4.43606 0.0643958 0.362434 0.129633 0.204628 -1.15865 0.846041 
0.127015 -1.41044 0.490598 0.388173 -1.09258 1.21918 0.273603 -2.267 0.542793 
0.196366 -2.77795 0.542612 -0.121612 -2.88178 0.421945 -0.295846 -3.52492 0.644285 
0.167825 -4.61026 1.47629 0.822114 -5.81446 2.47173 0.19724 -0.230342 0.620431 
1.40715 -6.32491 3.65912 0.120557 -1.21896 0.575677 0.299673 -1.2257 1.05008 
0.237204 -1.89818 0.538011 0.300491 -2.65422 0.61018 0.077471 -2.89075 0.505077 
-0.246275 -3.24349 0.427867 0.317722 -0.772955 1.02796 -0.123167 -4.1572 0.892617 
0.431126 -5.30763 1.73233 0.967564 -6.25615 2.79642 1.69719 -5.91577 4.3282 
0.0462503 0.28982 0.222369 0.165577 -1.19826 0.725801 0.181433 -1.55471 0.538784 
0.332442 -1.14407 1.10638 0.330423 -2.39216 0.641065 0.24709 -2.88321 0.624122 
-0.0776169 -3.10178 0.41947 -0.238256 -3.82128 0.515166 0.10537 -4.82061 1.09732 
0.563345 -5.96073 1.96971 0.185085 -0.307675 0.690245 1.23403 -6.19838 3.46327 
0.144371 -1.32777 0.571945 0.22908 -1.23523 0.876271 0.300927 -2.05141 0.642637 
0.35191 -2.76895 0.719634 0.125873 -3.04971 0.541254 0.27849 -0.851816 0.969445 
-0.186806 -3.57534 0.357978 0.226229 -5.5367 1.24705 -0.10432 -4.45034 0.627063 
0.753391 -6.26047 2.4983 0.0339043 0.205512 0.302755 1.60057 -5.61111 4.25024 
0.144491 -1.24295 0.643919 0.241564 -1.71428 0.631572 0.256563 -1.17009 0.930153 
0.385319 -2.53547 0.77246 0.29763 -3.00366 0.703 -0.0252252 -3.3958 0.392954 
-0.174067 -4.18582 0.350059 0.321722 -6.09771 1.57165 -0.00984479 -5.13722 0.690935 
0.159529 -0.404694 0.683308 1.14247 -5.92762 3.42038 0.183591 -1.45436 0.624808 
0.167704 -1.23098 0.721398 0.360431 -2.22393 0.785805 0.403123 -2.8911 0.839438 
0.171756 -3.26221 0.555261 0.216208 -0.920037 0.83162 -0.11192 -3.97322 0.266972 
-0.127712 -4.81417 0.327049 0.0128528 -5.82787 0.84791 0.61863 -6.15037 2.37009 
0.0171713 0.093164 0.333877 0.146774 -1.30359 0.629052 0.300719 -1.89517 0.770205 
1.49787 -5.22768 4.07251 0.176827 -1.16732 0.741328 0.437227 -2.6868 0.924184 
0.341472 -3.14703 0.763273 0.0372919 -3.75663 0.349694 -0.126535 -4.59544 0.161057 
-0.164836 -5.49467 0.315889 0.198561 -6.15476 1.48761 0.115651 -0.515326 0.597482 
0.893561 -5.70327 3.01197 0.129507 -1.2284 0.630049 0.230923 -1.6068 0.736145 
0.413579 -2.40846 0.95633 0.44743 -3.01107 0.947511 0.140984 -0.962282 0.653787 
0.216091 -3.53003 0.54775 -0.0340187 -4.40256 0.164944 -0.196163 -5.21021 0.0276969 
-0.153563 -6.03377 0.629591 -0.0108681 -0.0525715 0.296764 0.168895 -1.39333 0.689262 
0.251259 -5.95641 1.736 0.111206 -1.14421 0.594247 0.353279 -2.09454 0.943236 
0.481608 -2.82398 1.07178 1.38622 -4.87277 3.77413 0.373898 -3.31484 0.794339 
-0.322878 -5.80341 0.0316322 0.107992 -4.14866 0.299252 -0.109096 -5.01228 -0.0340994 
0.0566273 -0.618877 0.456336 0.118942 -1.24708 0.624779 0.851 -5.2802 2.91511 
0.27706 -1.78694 0.892777 -0.242255 -6.0405 0.588321 0.456688 -2.57854 1.12922 
0.0688172 -0.97086 0.489083 0.476154 -3.11759 1.02226 -0.289468 -5.57072 -0.23194 
0.260737 -3.82686 0.524005 0.0344335 -4.81984 0.0612882 -0.0511356 -0.216162 0.200614 
0.202447 -5.62317 1.68672 0.20016 -1.5192 0.810714 0.072317 -1.1203 0.528741 
0.393541 -2.28717 1.125 -0.447814 -5.9621 -0.145985 0.509769 -2.91896 1.18673 
-0.118504 -5.39 -0.213512 0.393741 -3.49207 0.791932 0.180726 -4.5244 0.247504 
1.25037 -4.52928 3.33947 -0.00666398 -0.691776 0.30522 -0.312619 -5.8508 0.520513 
0.128751 -1.30201 0.698155 0.312013 -1.97392 1.06651 0.776877 -4.84331 2.65824 
-0.376437 -5.82392 -0.422119 0.482477 -2.69335 1.27218 0.015783 -0.953273 0.387311 
0.482838 -3.19555 1.04849 0.0842052 -5.18433 -0.038224 0.306234 -4.11181 0.487724 
-0.0972099 -0.365502 0.0829167 0.172239 -5.18792 1.59116 0.0603887 -1.11725 0.552051 
-0.524873 -5.93002 -0.24253 0.226282 -1.66751 0.961414 0.413973 -2.42543 1.28049 
0.512483 -2.94729 1.24498 -0.144095 -5.67795 -0.36009 0.404395 -3.64993 0.757584 
0.24565 -4.84486 0.191761 1.09455 -4.20249 2.80307 -0.0585287 -0.722031 0.198783 
-0.329627 -5.4851 0.504685 0.143143 -1.39002 0.816705 0.324854 -2.11613 1.21795 
-0.0109072 -0.928775 0.370788 -0.438972 -5.90854 -0.530759 0.690653 -4.39988 2.28226 
0.482869 -2.71771 1.35642 0.467896 -3.22909 1.02096 0.105846 -5.46269 -0.138029 
0.350815 -4.34475 0.439858 0.163965 -4.68046 1.44006 -0.135101 -0.471627 0.00150723 
-0.547613 -5.67462 -0.243736 0.0632613 -1.14612 0.637877 0.22994 -1.78203 1.09244 
0.40909 -2.468 1.3787 0.486034 -2.89515 1.23473 -0.189938 -5.81694 -0.473974 
0.411213 -3.7633 0.69527 0.291146 -5.07427 0.125881 0.921871 -3.8767 2.19874 
-0.0861297 -0.718942 0.17819 -0.304738 -4.96249 0.488746 -0.0155073 -0.92264 0.429356 
0.312246 -2.1735 1.31609 0.136022 -1.44671 0.912731 0.452721 -2.63176 1.36592 
-0.487962 -5.7337 -0.548234 0.438993 -3.21039 0.944355 0.388043 -4.50126 0.376701 
0.0942995 -5.59905 -0.238072 0.593428 -3.95303 1.79486 0.151602 -4.17279 1.19143 
-0.148124 -0.529605 0.0145037 -0.502549 -5.08174 -0.117915 0.209488 -1.83229 1.17601 
0.375087 -2.3871 1.40155 0.435231 -2.76658 1.15672 0.0430972 -1.12436 0.681629 
0.416988 -3.81744 0.610534 -0.24654 -5.71441 -0.54497 0.304646 -5.18559 0.0401259 
0.733261 -3.53335 1.54985 -0.061849 -0.788214 0.3391 -0.155988 -4.16136 0.56824 
0.271544 -2.11042 1.34099 0.394229 -2.44226 1.2982 0.109199 -1.46069 0.967529 
0.405699 -3.14344 0.829541 -0.49952 -5.24448 -0.49903 0.406723 -4.56289 0.293107 
0.0458319 -5.5398 -0.342304 0.363657 -3.60279 1.14353 -0.135549 -0.560533 0.117773 
0.0115726 -1.0704 0.683345 0.315646 -2.18959 1.34679 -0.419022 -4.32732 -0.0542381 
0.161089 -1.7717 1.1862 0.370957 -2.58148 1.02216 0.416887 -3.80719 0.505487 
0.27979 -5.14391 -0.068306 -0.308941 -5.31255 -0.581444 0.559134 -3.21709 0.970173 
-0.06263 -0.791489 0.42853 -0.0490929 -3.54441 0.436836 0.211944 -1.94066 1.29626 
0.0546222 -1.36218 0.934897 0.315722 -2.17673 1.16122 0.372082 -3.03547 0.689243 
0.394857 -4.51607 0.181995 -0.47947 -4.47343 -0.442758 -0.0248587 -5.24337 -0.443412 
0.279888 -3.22061 0.64416 0.103703 -1.64363 1.14742 0.23767 -1.90135 1.22059 
-0.1168 -0.60147 0.271841 -0.295558 -3.50516 -0.0904575 0.303486 -2.36603 0.847968 
0.399756 -3.72173 0.380822 0.218541 -4.92871 -0.2016 -0.0399181 -0.95852 0.637626 
-0.35232 -4.67031 -0.612853 0.372535 -2.88118 0.373133 0.052523 -2.97698 0.0993002 
0.00871169 -1.29527 0.920319 0.142805 -1.68653 1.19062 0.227598 -1.87258 0.96852 
0.332527 -2.88373 0.53339 0.34944 -4.34276 0.0441981 -0.442865 -3.69946 -0.507751 
-0.107256 -4.72435 -0.554435 0.04698 -1.46163 1.07486 -0.114981 -0.650007 0.391263 
0.14813 -1.55651 1.02997 -0.261318 -2.95271 -0.398144 0.234338 -2.12875 0.65265 
0.356779 -3.55109 0.235473 0.140316 -4.54369 -0.350101 -0.0714035 -0.956001 0.675307 
-0.387997 -3.89942 -0.706876 0.210978 -2.59951 -0.125069 -0.0359537 -1.19874 0.893095 
-0.0286883 -2.63698 -0.394684 0.0657736 -1.35507 1.01959 0.134826 -1.54946 0.74246 
0.279615 -4.04488 -0.116838 -0.172633 -4.09954 -0.689066 0.277561 -2.68539 0.364385 
-0.416833 -2.98543 -0.749795 -0.0144881 -1.18616 0.939632 -0.1327 -0.692131 0.478422 
0.0471498 -1.17473 0.791005 -0.409831 -3.25962 -0.91379 0.0642568 -4.04461 -0.515748 
0.288959 -3.3042 0.0657988 0.158485 -1.87409 0.448862 -0.110289 -0.901895 0.679841 
-0.232612 -2.46567 -0.850275 0.0363046 -2.31675 -0.644953 -0.0837434 -1.00401 0.804646 
-0.0288928 -0.957914 0.786137 -0.444064 -2.56799 -1.1189 -0.22172 -3.49593 -0.880663 
0.197035 -3.65741 -0.307288 0.0393806 -1.22732 0.504851 0.204401 -2.44956 0.182674 
-0.0963572 -0.814295 0.721266 -0.160885 -0.669148 0.513228 -0.113015 -2.10352 -1.07445 
-0.334677 -2.22219 -1.29844 -0.442571 -2.77809 -1.22248 -0.0565058 -0.798583 0.534197 
-0.0183212 -3.49805 -0.735946 0.207481 -2.99849 -0.124788 0.0745761 -1.62134 0.244809 
-0.142408 -0.747886 0.634566 -0.508975 -2.28178 -1.53802 -0.12356 -0.57373 0.53572 
0.11425 -3.23643 -0.528314 -0.306887 -2.91115 -1.1992 -0.0531324 -0.947874 0.271757 
0.118693 -2.17462 -0.0035716 -0.16449 -0.511592 0.51672 -0.269298 -1.91812 -1.50812 
-0.453316 -2.02736 -1.73195 -0.185037 -0.522476 0.46365 -0.149183 -0.490079 0.281637 
0.128994 -2.66536 -0.320209 -0.113065 -2.98837 -1.02861 -0.534687 -2.30566 -1.70255 
-0.0171971 -1.3604 0.0485894 -0.19916 -0.268631 0.298055 0.0428148 -2.84251 -0.757271 
-0.432462 -2.43429 -1.64166 0.0356356 -1.8932 -0.18799 -0.585573 -1.95427 -2.06434 
-0.147137 -0.684735 0.0591003 -0.218039 -0.204168 0.293979 -0.210565 -0.287485 0.332021 
-0.433291 -1.77312 -1.94245 -0.195928 -2.60572 -1.32984 0.0627386 -2.35966 -0.521832 
-0.239162 -0.210861 0.0544911 -0.104697 -1.10652 -0.130479 -0.652911 -1.95789 -2.24649 
-0.276965 0.0234163 0.0579593 -0.033952 -2.50654 -1.02682 -0.513467 -2.18325 -1.99214 
-0.580374 -1.68692 -2.31213 -0.0290869 -1.64711 -0.363706 -0.263044 0.0274217 0.104797 
-0.232691 -0.444571 -0.11648 0.00995712 -2.12478 -0.739458 -0.317969 -2.27577 -1.71588 
-0.714313 -1.85524 -2.51803 -0.31626 0.0433166 -0.120747 -0.16849 -0.89923 -0.283609 
-0.702596 -1.64814 -2.60522 -0.328675 0.239316 -0.11414 -0.134698 -2.22827 -1.35593 
-0.645965 -1.92882 -2.43563 -0.0593001 -1.51406 -0.54534 -0.304946 -0.175812 -0.226205 
-0.041553 -1.95535 -0.984388 -0.795488 -1.65035 -2.82537 -0.487132 -1.98798 -2.17466 
-0.366364 0.227817 -0.249376 -0.248253 -0.511698 -0.328435 -0.140666 -1.02508 -0.492395 
-0.275437 -1.99127 -1.74086 -0.0642954 -1.50647 -0.79723 -0.783188 -1.69411 -2.82072 
-0.33614 -0.0422718 -0.313693 -0.121008 -1.83111 -1.2911 -0.622002 -1.75514 -2.5056 
-0.222623 -0.550533 -0.427224 -0.34599 -1.76278 -1.89826 -0.103985 -1.11712 -0.692957 
-0.115112 -1.56596 -1.18148 
