# vtk DataFile Version 3.0
vtk output
ASCII
DATASET POLYDATA
POINTS 724 float
9.98334 -10.2061 10.842 10.1603 -11.3116 10.7119 9.83066 -8.95572 11.1067 
10.3518 -12.2737 10.6869 9.73211 -7.7966 11.4637 9.99927 -9.43476 11.3567 
10.5618 -13.1228 10.7485 9.6785 -6.6859 11.9102 10.1618 -10.3915 11.2779 
9.91102 -8.41485 11.6946 10.3298 -11.2419 11.2585 10.4959 -12.0613 11.2281 
10.7629 -13.7963 10.879 9.8408 -7.41647 12.0533 9.67002 -5.63409 12.4298 
10.1132 -9.31903 11.8116 10.6711 -12.6123 11.3789 10.2982 -10.2859 11.7975 
9.80653 -6.43413 12.4871 10.0211 -8.21067 12.1993 10.9647 -14.3576 11.0707 
9.70633 -4.58682 13.031 10.4987 -11.2514 11.7971 10.8593 -13.2234 11.5033 
9.79741 -5.42244 12.9676 9.95823 -7.13596 12.621 10.2071 -9.08091 12.2947 
10.7092 -11.994 11.9468 11.1658 -14.8201 11.3201 10.3887 -10.0038 12.3083 
9.76912 -3.71899 13.5821 9.92414 -6.03879 13.097 10.1227 -7.92384 12.7275 
11.0533 -13.7536 11.6824 9.87858 -4.78635 13.5273 10.5765 -10.8201 12.3799 
10.9218 -12.6807 12.103 10.2935 -8.76452 12.8048 10.0657 -6.78303 13.1845 
9.86275 -2.84558 14.1929 11.3704 -15.205 11.6328 11.254 -14.2652 11.8854 
10.7796 -11.5508 12.5285 9.92093 -3.85133 14.0382 10.4657 -9.6037 12.8601 
10.0214 -5.58737 13.6449 10.2199 -7.57175 13.2684 11.1463 -13.3524 12.2661 
10.6514 -10.3886 12.9635 10.0289 -4.55695 14.1228 10.1672 -6.3866 13.7336 
10.3814 -8.38389 13.3459 10.9963 -12.2857 12.6726 11.5464 -15.4726 11.9482 
10.0004 -2.94244 14.6136 9.98534 -1.99425 14.8612 11.4005 -14.2828 12.2882 
10.551 -9.19462 13.4276 10.8554 -11.153 13.1036 10.1527 -5.28485 14.2161 
10.3199 -7.18874 13.8175 11.2343 -13.1144 12.751 10.0811 -3.53686 14.6796 
11.6001 -14.7831 12.4942 10.7364 -9.98367 13.5431 10.48 -7.99715 13.9029 
10.2874 -6.04657 14.2963 11.0782 -11.9703 13.2154 10.1727 -4.19078 14.7373 
10.1252 -2.30517 15.2247 10.1122 -1.27162 15.4949 11.7413 -15.703 12.3447 
11.4382 -13.7066 12.8771 10.6498 -8.80105 14.0012 10.9408 -10.7915 13.6682 
10.4341 -6.83162 14.3785 10.2821 -4.9074 14.7965 10.2067 -2.96917 15.2839 
11.2975 -12.6698 13.3517 11.6383 -14.2158 13.0457 10.2352 -0.63505 16.0987 
10.2542 -1.77905 15.8097 11.8068 -15.0147 12.9179 10.8345 -9.60341 14.1185 
10.5917 -7.62914 14.4704 10.4091 -5.66941 14.8624 10.2956 -3.70909 15.3138 
11.1558 -11.5597 13.8057 11.935 -15.8655 12.7864 11.5214 -13.313 13.4959 
10.3357 -2.56281 15.8384 10.761 -8.428 14.5766 10.403 -4.48101 15.3538 
10.5523 -6.46082 14.9413 11.0348 -10.3926 14.254 11.3849 -12.3088 13.9439 
10.3598 -0.939712 16.4145 11.772 -14.1292 13.5234 10.3802 0.0727515 16.8139 
10.4237 -3.33807 15.8564 11.9745 -14.9957 13.41 10.5296 -5.27887 15.4131 
10.7096 -7.26075 15.0382 10.9442 -9.21845 14.702 10.4144 -1.61286 16.3938 
11.2529 -11.1932 14.3882 12.1119 -15.9567 13.2283 11.6409 -13.1574 14.0066 
10.5301 -4.12424 15.891 10.4792 -2.32378 16.3851 10.6731 -6.08609 15.497 
10.88 -8.05578 15.1533 11.1443 -10.0213 14.8339 11.4952 -12.0643 14.4791 
11.8994 -14.017 14.003 10.5043 -0.499903 17.0357 10.5169 0.712697 17.4892 
10.5611 -3.0588 16.3903 12.1202 -14.8779 13.9166 10.6557 -4.91811 15.9561 
10.8321 -6.89218 15.6028 11.0643 -8.85338 15.2796 10.555 -1.3016 16.9584 
12.2726 -15.9941 13.6583 11.3637 -10.874 14.9433 11.7488 -12.9332 14.5237 
10.6323 0.350488 17.742 10.6642 -3.79813 16.4321 10.616 -2.05217 16.918 
10.7992 -5.72212 16.0487 11.0053 -7.69544 15.7234 11.2637 -9.676 15.3994 
11.9958 -13.7453 14.5278 11.5974 -11.7341 15.0253 10.6605 -0.368971 17.6002 
12.3048 -15.1925 14.2153 10.68 1.45313 18.2858 10.6988 -2.74313 16.9359 
10.7869 -4.56584 16.5026 10.9598 -6.53134 16.1617 11.1909 -8.50408 15.846 
11.8338 -12.547 15.0809 10.6977 -1.12927 17.485 11.4767 -10.5088 15.5055 
12.207 -14.3206 14.6241 12.4528 -15.9869 14.1737 10.7839 0.851592 18.4124 
10.7999 -3.45303 16.9814 10.9296 -5.35963 16.5999 10.7612 -1.76939 17.4768 
11.1353 -7.342 16.2843 12.0562 -13.217 15.1544 11.3875 -9.31281 15.9645 
11.7 -11.3254 15.5963 10.7938 -0.13577 18.1185 12.4445 -14.9946 14.76 
10.8374 2.15809 19.0361 10.9207 -4.20259 17.0531 10.8414 -2.4146 17.4962 
11.0911 -6.16876 16.7156 12.2781 -13.8718 15.2109 11.3213 -8.14547 16.4085 
11.5951 -10.1136 16.0758 11.9257 -12.0734 15.6868 10.8441 -0.793015 18.0681 
12.616 -15.9374 14.6727 10.9033 0.77384 18.7773 10.9549 1.77854 19.2813 
10.9399 -3.09864 17.5387 11.0625 -4.98894 17.15 11.2677 -6.97838 16.8404 
10.9072 -1.41032 18.0545 11.5165 -8.93625 16.5305 12.1544 -12.7925 15.7598 
11.8128 -10.8885 16.1831 12.4721 -14.3324 15.3625 10.9491 0.166962 18.723 
12.6383 -15.0955 15.2488 11.0135 2.9444 19.8474 11.0586 -3.83283 17.6072 
11.2246 -5.79589 17.2662 10.9858 -2.0451 18.0644 11.455 -7.77502 16.968 
11.7219 -9.71165 16.6505 12.0391 -11.6515 16.2762 12.3723 -13.3817 15.8742 
10.9973 -0.420433 18.6727 12.788 -15.8416 15.2352 11.0512 1.29629 19.4291 
11.1997 -4.61269 17.7012 11.0829 -2.72218 18.0997 11.4027 -6.60366 17.3934 
11.6511 -8.55532 17.0959 11.125 2.42434 20.0276 11.0576 -1.01953 18.641 
12.6005 -14.1259 15.8907 11.9388 -10.4849 16.7603 12.2653 -12.3466 16.3782 
11.0983 0.669826 19.3622 12.7859 -14.8985 15.8251 11.1818 3.69179 20.5862 
11.2017 -3.45442 18.1625 11.3622 -5.4175 17.8164 11.1343 -1.6521 18.635 
11.5922 -7.39903 17.5253 11.8573 -9.3298 17.2185 12.1632 -11.2347 16.8647 
11.1462 0.0532946 19.2833 12.5004 -13.1113 16.4246 11.2011 1.8353 20.0745 
12.9431 -15.7125 15.784 11.3435 -4.23336 18.2535 11.2315 -2.33714 18.6585 
11.5417 -6.22616 17.9449 12.7263 -13.8968 16.4235 11.7911 -8.18392 17.6559 
11.2068 -0.572987 19.225 11.2871 3.06843 20.7139 12.074 -10.0982 17.3326 
12.3959 -12.0288 16.9303 11.2458 1.17707 19.9813 12.9217 -14.7074 16.3701 
11.3435 4.40918 21.2556 11.3522 -3.07381 18.7167 11.5068 -5.04017 18.367 
11.2845 -1.2412 19.1951 11.7336 -7.02822 18.0783 11.2941 0.525363 19.8741 
11.9992 -8.96308 17.7803 12.628 -12.8435 16.9565 12.3002 -10.8993 17.4165 
11.3505 2.38931 20.6933 13.084 -15.5524 16.3241 11.3851 -1.94518 19.2105 
11.4961 -3.8571 18.8056 11.3563 -0.157912 19.7805 11.6871 -5.85488 18.4945 
12.8505 -13.6681 16.9438 11.9354 -7.82291 18.2096 11.3916 1.67216 20.5667 
12.2174 -9.76227 17.8835 11.4455 3.70024 21.3436 12.5297 -11.7293 17.4642 
13.0477 -14.5022 16.8999 11.4397 -0.845945 19.7426 11.5102 -2.69382 19.267 
11.4392 0.915006 20.406 11.6605 -4.6703 18.917 11.4982 5.09878 21.8595 
11.8807 -6.66625 18.6263 12.1462 -8.62577 18.3274 12.7559 -12.5757 17.4765 
11.4988 2.91583 21.2611 12.4419 -10.5872 17.9547 13.2124 -15.3628 16.857 
11.5301 1.99242 21.0382 11.5101 0.222693 20.3163 11.546 -1.56233 19.7565 
11.6582 -3.48686 19.3554 12.9719 -13.4236 17.4599 11.8411 -5.49305 19.0414 
12.0844 -7.47887 18.7523 12.3648 -9.44465 18.4224 12.6663 -11.4363 17.9906 
11.5997 4.2638 21.9038 13.1662 -14.2719 17.4255 11.6253 3.07578 21.6276 
11.5903 1.26874 20.9161 11.6011 -0.466431 20.2827 11.6766 -2.32258 19.8139 
11.8247 -4.30921 19.4656 12.0343 -6.31644 19.1673 12.8846 -12.2974 17.9957 
11.6474 5.74773 22.4043 12.2963 -8.29926 18.8634 12.5871 -10.2832 18.4866 
13.33 -15.1445 17.3842 11.7168 4.08866 22.1414 11.6818 2.32364 21.5152 
11.6701 0.594026 20.8451 11.7137 -1.18881 20.2991 13.0921 -13.1572 17.9795 
11.8294 -3.12603 19.9037 12.0047 -5.14068 19.5851 12.2375 -7.14126 19.286 
12.8058 -11.1397 18.5182 12.5147 -9.13115 18.9537 11.7644 5.20217 22.5553 
13.2805 -14.013 17.9547 11.7507 1.64345 21.4275 11.7843 3.39443 22.0904 
11.768 -0.0917692 20.8186 11.8498 -1.95907 20.359 11.9981 -3.95625 20.0127 
12.1953 -5.97108 19.7038 13.0159 -12.0052 18.5221 12.4486 -7.97227 19.3913 
12.7345 -9.97721 19.0169 11.818 6.42514 22.9796 13.4392 -14.8999 17.9067 
11.8696 4.56643 22.623 11.8356 0.975556 21.369 11.8472 2.71536 22.0102 
11.8866 -0.819588 20.8388 13.2138 -12.8684 18.51 12.0071 -2.77166 20.4512 
12.1769 -4.79178 20.1277 12.3951 -6.80155 19.8144 12.9479 -10.8361 19.0502 
12.6657 -8.81254 19.4794 11.9315 5.73866 23.0798 13.394 -13.7239 18.4966 
11.9439 3.86158 22.5733 11.9188 2.04596 21.9353 11.9391 0.285578 21.3488 
12.0279 -1.59967 20.9026 12.1779 -3.60608 20.5599 12.3634 -5.62373 20.2389 
13.1502 -11.7007 19.0587 12.603 -7.63756 19.9142 12.8825 -9.66334 19.5451 
13.5413 -14.6326 18.4237 11.9936 7.02398 23.5269 12.0255 5.03337 23.0924 
12.0129 3.16773 22.4977 12.0063 1.3698 21.8837 13.3388 -12.5607 19.0555 
12.0636 -0.450739 21.3748 12.1887 -2.4196 20.9982 12.3553 -4.44124 20.6713 
12.5576 -6.45396 20.3417 13.0909 -10.5228 19.5857 12.8162 -8.48187 20.0005 
12.0988 6.25066 23.5834 13.5098 -13.4064 19.0593 12.1026 4.31799 23.0355 
12.0887 2.47838 22.4283 12.114 0.66757 21.8707 12.2098 -1.24049 21.4447 
12.3608 -3.25494 21.1082 12.5374 -5.26962 20.7759 13.2861 -11.3844 19.6043 
12.7591 -7.28971 20.4348 13.0281 -9.33394 20.0703 13.6365 -14.3496 18.929 
12.179 7.56309 24.0694 12.1838 5.49595 23.5568 12.1777 3.61398 22.9629 
12.1795 1.77995 22.3839 12.2441 -0.0805267 21.9048 13.4661 -12.2386 19.6156 
12.373 -2.06569 21.5458 12.5373 -4.08533 21.2175 12.7243 -6.09481 20.8705 
13.2305 -10.1905 20.1209 12.9649 -8.13237 20.5185 13.7237 -14.0615 19.4102 
13.1692 -8.98082 20.5921 12.9163 -6.92393 20.9565 12.715 -4.90576 21.3173 
12.5455 -2.89913 21.6588 12.2606 4.76193 23.486 12.2594 2.91029 22.9014 
12.3946 -0.87859 21.984 12.2915 1.05709 22.3799 12.2733 6.73803 24.0863 
13.4181 -11.0421 20.1546 13.6294 -13.0685 19.647 13.1113 -7.75883 21.0365 
13.3637 -9.82922 20.6539 12.8938 -5.72066 21.4049 12.7201 -3.72193 21.7682 
12.5593 -1.70609 22.0931 13.5885 -11.8747 20.1879 12.4264 0.293857 22.4256 
12.3553 2.19362 22.8682 12.3408 4.04782 23.4131 12.3479 5.94818 24.0248 
12.3726 8.06202 24.6083 13.8096 -13.7489 19.9018 13.3047 -8.59845 21.1125 
13.0744 -6.53769 21.4837 13.5427 -10.6631 20.7074 12.8934 -4.53076 21.8651 
12.7307 -2.53597 22.2116 12.5804 -0.510211 22.5173 12.4713 1.45089 22.8772 
12.43 3.33582 23.3603 12.4215 5.19412 23.9359 13.7423 -12.6551 20.2584 
12.4579 7.2125 24.5961 13.2558 -7.35991 21.5591 13.4892 -9.43313 21.1853 
13.0644 -5.33105 21.9479 12.9024 -3.34921 22.3237 12.746 -1.33879 22.6373 
[...]
POINT_DATA 724
VECTORS velocity double
0.997448 -1.20092 1.23494 1.13232 -0.942828 1.32445 0.879562 -1.61461 1.08798 
1.26478 -0.730542 1.33707 0.806097 -2.1459 0.95564 0.900728 -1.58283 1.09557 
1.37999 -0.487378 1.26848 0.776997 -2.78155 0.876253 0.996656 -1.34275 1.1979 
0.813346 -2.01739 0.947985 1.10445 -1.18854 1.26047 1.22805 -1.0133 1.28085 
1.45905 -0.231036 1.14371 0.765929 -2.53228 0.842481 0.80619 -3.47142 0.867485 
0.84288 -1.77901 0.991953 1.304 -0.922973 1.22745 0.920922 -1.5653 1.08175 
0.762308 -3.12829 0.797436 0.753794 -2.25762 0.828056 1.50853 0.0279672 0.983477 
0.904578 -4.17539 0.918164 1.03709 -1.41836 1.1484 1.3907 -0.724968 1.13085 
0.818631 -3.77616 0.825245 0.72151 -2.82966 0.735653 0.759383 -1.99328 0.858526 
1.12782 -1.34856 1.12485 1.53171 0.26659 0.806817 0.807963 -1.78798 0.934305 
1.0337 -4.74668 0.993647 0.753718 -3.48661 0.735842 0.686099 -2.49936 0.705766 
1.45429 -0.495542 0.990478 0.88196 -4.22823 0.845193 0.873536 -1.6991 0.98308 
1.22471 -1.20815 1.05001 0.669648 -2.20493 0.724225 0.684074 -3.10339 0.654468 
1.19298 -5.37759 1.09914 1.53281 0.478167 0.622352 1.50121 -0.204565 0.816457 
0.94521 -1.66262 0.983703 1.02098 -4.80561 0.944035 0.682241 -2.0022 0.779309 
0.76457 -3.7887 0.713313 0.62639 -2.72607 0.60956 1.32552 -0.93927 0.919761 
0.715381 -1.9112 0.830704 0.889693 -4.38645 0.811084 0.661355 -3.33301 0.608971 
0.58877 -2.4041 0.614632 1.04688 -1.55989 0.944767 1.51898 0.631665 0.468625 
1.18382 -5.44775 1.06877 1.36136 -6.14017 1.24003 1.47081 -0.279276 0.707906 
0.575678 -2.17433 0.661219 0.775052 -1.8782 0.862875 0.75594 -3.92166 0.680726 
0.581036 -2.91525 0.55143 1.20196 -1.23396 0.848325 1.05356 -5.02464 0.939729 
1.50016 0.101026 0.523329 0.587734 -2.05044 0.725344 0.525964 -2.56349 0.549474 
0.636681 -3.45611 0.578391 0.887234 -1.79404 0.865001 0.90318 -4.5315 0.7966 
1.30069 -6.0264 1.17564 1.50375 -6.9028 1.40772 1.4915 0.770661 0.313949 
1.30404 -0.867515 0.716326 0.496592 -2.29899 0.596916 0.637731 -1.99843 0.789619 
0.542812 -3.03076 0.523205 0.749464 -4.01358 0.660858 1.13004 -5.41923 1.00327 
1.00701 -1.60225 0.812046 1.3744 -0.465717 0.567064 1.62251 -7.58131 1.62214 
1.3886 -6.56826 1.29373 1.47645 0.267009 0.374499 0.495612 -2.12999 0.676497 
0.477612 -2.66812 0.524921 0.613236 -3.52204 0.559006 0.932824 -4.73252 0.814597 
0.724128 -1.95063 0.824841 1.45477 0.878389 0.187087 1.13001 -1.2614 0.712357 
1.16126 -5.70746 1.05207 0.44046 -2.37925 0.579884 0.743757 -4.09009 0.650906 
0.507699 -3.08814 0.510272 0.52849 -2.04604 0.763282 0.846072 -1.80185 0.812903 
1.55102 -7.43168 1.56998 1.29892 -0.586404 0.533185 1.7465 -8.22015 1.98507 
0.927579 -4.85219 0.821556 1.42607 0.241383 0.31333 0.58428 -3.53759 0.539425 
0.436769 -2.72398 0.522225 0.431169 -2.17129 0.671748 1.35826 -6.69024 1.32525 
0.604183 -1.99155 0.831684 1.41469 0.951098 0.104266 1.02746 -1.39214 0.721171 
0.712797 -4.1009 0.632966 1.1236 -5.785 1.06151 0.467456 -3.09031 0.496229 
0.397206 -2.42533 0.58829 0.454544 -2.03918 0.777789 0.739994 -1.8535 0.846863 
1.21776 -0.692339 0.542227 1.60029 -7.81865 1.79664 1.85837 -8.61218 2.46148 
0.880478 -4.87142 0.812923 1.35875 0.146199 0.315501 0.5379 -3.49968 0.512564 
0.393927 -2.73338 0.521058 0.385461 -2.1853 0.691867 1.34545 -6.88311 1.42234 
1.37254 0.996379 0.0615959 0.522433 -1.95616 0.868059 0.918957 -1.49278 0.773678 
1.75627 -8.40554 2.35041 0.657736 -4.07561 0.61287 1.07681 -5.85425 1.09289 
0.414131 -3.04414 0.472942 0.35629 -2.43749 0.600578 0.403351 -2.00544 0.809481 
1.09896 -0.891367 0.61966 0.637429 -1.84137 0.903375 1.53628 -7.74912 1.90448 
1.34195 0.458155 0.230869 1.99757 -8.81861 3.16859 0.823589 -4.9056 0.82299 
0.474175 -3.43855 0.483304 0.341528 -2.70071 0.509546 0.346619 -2.1815 0.71406 
0.783699 -1.58259 0.861339 1.26587 -6.80172 1.47017 0.45479 -1.88339 0.908386 
1.19563 -0.33301 0.477138 1.31609 1.02331 0.0513018 1.815 -8.51713 2.81978 
0.591058 -4.06285 0.604924 0.346292 -2.97263 0.442092 1.00658 -5.85655 1.13798 
0.309907 -2.42049 0.602139 0.915248 -1.18255 0.765327 0.36034 -1.96779 0.835166 
0.539825 -1.76975 0.95732 1.49086 -7.68452 2.06701 1.25472 0.336326 0.297208 
2.13362 -8.80131 3.9036 0.399218 -3.3854 0.46072 0.752058 -4.91874 0.849339 
0.277143 -2.64243 0.485637 1.03761 -0.641489 0.61963 0.305585 -2.16779 0.722931 
0.396563 -1.8024 0.935391 0.644478 -1.58271 0.941306 1.21503 -6.80575 1.61524 
1.25209 1.02463 0.0708822 1.69752 -8.20519 2.7996 1.9878 -8.63514 3.70221 
0.515219 -4.05584 0.612505 0.268169 -2.90201 0.411393 0.254155 -2.38436 0.587908 
0.946232 -5.87957 1.23578 0.318517 -1.93577 0.844974 0.762494 -1.25918 0.85834 
0.45377 -1.66365 0.988892 1.08804 -0.182459 0.498964 1.43091 -7.52951 2.27905 
1.17795 0.485907 0.28543 2.26005 -8.60474 4.65983 0.319082 -3.35006 0.451796 
0.203145 -2.57882 0.455012 0.684102 -4.94184 0.908518 0.25822 -2.14608 0.715116 
0.344322 -1.73381 0.943603 0.531285 -1.49445 0.979045 0.851759 -0.846548 0.740244 
1.16216 -6.74055 1.80285 1.16436 0.999761 0.107532 1.73712 -8.16936 3.26897 
0.186924 -2.84923 0.390228 0.44208 -4.06512 0.643149 0.189734 -2.3401 0.562485 
0.274665 -1.90988 0.839396 2.05372 -8.48985 4.29138 0.890618 -5.865 1.37283 
0.9643 -0.241817 0.54836 0.383085 -1.55894 0.996213 0.613112 -1.24001 0.90549 
1.44402 -7.51587 2.65858 1.05221 0.402003 0.335802 2.32628 -8.30716 5.206 
0.243509 -3.33852 0.461612 0.126374 -2.5273 0.428048 0.623194 -4.95013 0.997745 
0.204588 -2.11922 0.69574 0.297129 -1.68352 0.938833 0.432197 -1.38256 0.98444 
1.15305 -6.74206 2.08544 0.716977 -0.834456 0.760626 1.76497 -8.07688 3.70746 
1.05906 0.949775 0.137255 0.112837 -2.82479 0.385714 0.37686 -4.07354 0.694448 
0.122518 -2.30168 0.535797 0.823889 -0.283557 0.564184 0.229316 -1.88795 0.825408 
0.862909 -5.87594 1.56778 2.08405 -8.27672 4.73246 0.323466 -1.47776 0.990311 
0.499841 -1.14545 0.898354 1.45549 -7.47054 3.02505 0.912393 0.334267 0.347816 
2.32493 -7.96516 5.49058 0.179764 -3.34434 0.489837 0.0579131 -2.50229 0.414367 
0.578122 -4.95433 1.11524 0.149419 -2.0954 0.673433 1.14801 -6.72046 2.3692 
0.254272 -1.65188 0.929018 0.584752 -0.789367 0.742828 0.357049 -1.2783 0.973068 
1.77565 -7.9499 4.06336 0.934705 0.877146 0.144886 0.325265 -4.08247 0.763547 
0.0555901 -2.83039 0.400281 0.834184 -5.84132 1.75098 0.0630921 -2.28383 0.517843 
0.678488 -0.297485 0.540787 0.185045 -1.87334 0.809037 1.45259 -7.40255 3.32146 
0.277193 -1.4226 0.984319 2.06811 -8.01921 4.97505 0.401854 -1.04717 0.874409 
0.760561 0.269496 0.324681 0.538036 -4.93153 1.2337 0.132682 -3.36524 0.533054 
1.1137 -6.6336 2.55148 0.00948386 -2.51136 0.419396 2.26523 -7.61474 5.52077 
0.100725 -2.08661 0.655251 0.217537 -1.63507 0.920655 0.461838 -0.7299 0.705059 
1.75283 -7.7814 4.26758 0.298429 -1.2021 0.964399 0.793751 0.786162 0.124937 
1.38374 -7.23009 3.38628 0.794034 -5.77621 1.89038 0.283839 -4.0849 0.838227 
0.0210401 -2.86559 0.43187 0.533939 -0.299902 0.494888 0.0232182 -2.29703 0.514861 
0.146815 -1.87085 0.794395 0.241564 -1.39535 0.983311 0.322014 -0.966285 0.854997 
1.99538 -7.76116 4.98732 0.602948 0.204127 0.277616 1.62123 -7.53782 4.10959 
1.05342 -6.51564 2.63921 0.498607 -4.90209 1.33578 0.101372 -3.39973 0.584661 
-0.0112691 -2.55697 0.44358 0.0678458 -2.10142 0.645902 0.354835 -0.67419 0.670445 
2.17477 -7.2832 5.37573 0.187007 -1.63556 0.912422 0.255765 -1.16023 0.967372 
0.642777 0.683094 0.082261 1.77758 -7.5786 4.57331 1.29259 -7.04315 3.3592 
0.743853 -5.71654 1.97921 0.250761 -4.0975 0.909264 0.400195 -0.298572 0.447537 
0.00902173 -2.93034 0.476228 0.0112365 -2.34465 0.529084 0.119039 -1.88667 0.781276 
0.262895 -0.915766 0.85452 0.214619 -1.39425 0.984919 1.94804 -7.46285 4.96871 
0.450088 0.140383 0.224072 0.98254 -6.41207 2.66026 1.48423 -7.29988 3.92491 
0.458835 -4.89474 1.41049 0.0840379 -3.459 0.639866 -0.00373438 -2.63887 0.484462 
0.057557 -2.14379 0.647064 0.270941 -0.635563 0.658212 0.162999 -1.65366 0.90041 
0.226881 -1.15252 0.980646 2.07056 -6.95134 5.13381 0.492131 0.575707 0.0300819 
1.6554 -7.39675 4.37465 0.686921 -5.68467 2.01359 1.19228 -6.87607 3.26359 
0.224674 -4.14145 0.968809 0.28825 -0.300304 0.420423 0.0159035 -3.03026 0.530235 
0.0287743 -2.42603 0.560159 0.105867 -1.92258 0.769871 0.224512 -0.900956 0.875693 
0.193575 -1.41475 0.981698 1.81041 -7.261 4.68952 0.314338 0.0793875 0.185686 
1.37009 -7.14525 3.74789 0.901805 -6.32554 2.60649 0.417421 -4.92428 1.44654 
0.0785034 -3.55588 0.695113 0.0264987 -2.75773 0.539872 0.0727418 -2.21264 0.660675 
0.214278 -0.623898 0.677808 0.146329 -1.68689 0.881838 0.207287 -1.17334 0.994226 
0.354411 0.470824 -0.0134602 1.98574 -6.68845 4.92607 1.51367 -7.25785 4.09859 
1.09093 -6.75819 3.11456 0.621716 -5.67598 1.98132 0.206888 -0.313433 0.429733 
0.203211 -4.228 1.00748 0.0367797 -3.17043 0.592939 0.0707699 -2.53872 0.608279 
0.110449 -1.97665 0.763132 0.202428 -0.919822 0.908947 0.175664 -1.45008 0.966176 
1.6883 -7.09612 4.42945 0.207925 0.01923 0.183245 1.23342 -7.03482 3.48769 
0.813621 -6.26386 2.48315 0.371089 -4.98717 1.43079 0.0825785 -3.69722 0.746261 
0.0711437 -2.91302 0.610226 0.111173 -2.30463 0.690428 0.182804 -0.643592 0.724501 
0.13865 -1.73114 0.858246 0.191012 -1.21355 0.995252 0.241711 0.373241 -0.0312991 
1.91364 -6.47747 4.79121 1.37205 -7.15615 3.80992 0.966736 -6.67077 2.87917 
0.547989 -5.68595 1.88096 0.18295 -4.35683 1.01436 0.158525 -0.345802 0.478416 
0.0679301 -3.35153 0.664382 0.127861 -2.67996 0.675948 0.133567 -2.0454 0.767594 
0.188668 -0.965305 0.937725 0.159554 -1.49293 0.935932 0.161047 0.284915 -0.0150733 
0.172967 -1.2625 0.974811 0.142061 -1.7825 0.837119 0.165856 -2.41665 0.742339 
0.1235 -3.10185 0.698168 1.08512 -6.96938 3.18879 0.706134 -6.21494 2.27764 
0.0933159 -3.88222 0.786516 0.318004 -5.07553 1.3576 1.5822 -6.94264 4.22654 
0.168571 -0.695339 0.783334 0.138675 -0.044283 0.227304 0.146328 -1.53694 0.896724 
0.17433 -1.02564 0.945262 0.17269 -2.12648 0.793224 0.190897 -2.84656 0.768076 
0.106675 -3.56923 0.741991 0.137883 -0.410281 0.560826 0.159867 -4.52065 0.980931 
0.459741 -5.70071 1.70797 0.824308 -6.62482 2.58814 1.24019 -7.06462 3.55211 
1.83636 -6.27327 4.7045 0.107189 0.197266 0.0372101 0.151107 -1.31009 0.933362 
0.158109 -1.83868 0.831543 0.159795 -0.770318 0.830797 0.227788 -2.5469 0.824223 
0.180091 -3.31798 0.804752 0.10562 -4.10416 0.806228 0.254429 -5.17387 1.22468 
0.579615 -6.19183 2.00966 0.936755 -6.92791 2.89329 0.106781 -0.1374 0.328224 
1.48736 -6.76523 4.0927 0.139228 -1.57823 0.862738 0.152849 -1.08703 0.922741 
0.222243 -2.21964 0.851914 0.254456 -3.0341 0.888544 0.148641 -3.81448 0.816799 
0.129544 -4.70564 0.903006 0.13222 -0.502826 0.649002 0.356202 -5.72467 1.47582 
0.67275 -6.61321 2.27763 1.12535 -6.94687 3.36078 1.73865 -6.03097 4.60124 
0.0773443 0.100542 0.127668 0.127419 -1.34913 0.882749 0.186287 -1.90031 0.857814 
0.14489 -0.85188 0.845587 0.28992 -2.69443 0.942827 0.238375 -3.55216 0.923799 
0.112074 -4.34742 0.794772 0.180621 -5.27724 1.04339 0.439591 -6.20069 1.70858 
0.800762 -6.8762 2.64367 0.0993679 -0.239325 0.438049 1.39597 -6.52211 4.00594 
0.141876 -1.61714 0.853698 0.122669 -1.13669 0.875229 0.275667 -2.32689 0.95405 
0.316477 -3.23557 1.03402 0.185667 -4.07289 0.873505 0.124994 -0.600805 0.704723 
0.0895797 -4.89216 0.784022 0.524757 -6.61058 1.98802 0.242243 -5.77202 1.21215 
1.03155 -6.76166 3.25469 0.0683179 -0.00622297 0.240346 1.6145 -5.7357 4.40993 
0.10709 -1.37726 0.84418 0.22339 -1.97161 0.931012 0.117473 -0.92036 0.821536 
0.348699 -2.85599 1.09724 0.291986 -3.7902 1.03765 0.106376 -4.58936 0.74667 
0.0990164 -5.37836 0.831743 0.68455 -6.76999 2.46844 0.300323 -6.24454 1.42192 
0.0970996 -0.348676 0.526086 1.30257 -6.17676 3.90964 0.155941 -1.65872 0.889753 
0.0877356 -1.1677 0.822025 0.327741 -2.44924 1.102 0.373291 -3.43753 1.18702 
0.207349 -4.32146 0.895652 0.105259 -0.690231 0.715555 0.0417739 -5.06053 0.636386 
0.124863 -5.83729 0.946737 0.406179 -6.59083 1.79807 0.948496 -6.49155 3.19225 
0.0679754 -0.122133 0.345956 0.0957877 -1.39876 0.842211 0.26452 -2.05727 1.05821 
1.46498 -5.39794 4.08161 0.0782885 -0.966773 0.773114 0.401508 -3.02093 1.27153 
0.329325 -4.00938 1.12062 0.0871784 -4.80143 0.665463 0.0149571 -5.47263 0.612906 
0.176513 -6.27824 1.19287 0.640765 -6.54 2.5104 0.0851775 -0.456012 0.571171 
1.08115 -5.95768 3.52073 0.0552374 -1.18255 0.79017 0.179786 -1.71072 0.983922 
0.374596 -2.57986 1.28234 0.415178 -3.61708 1.31639 0.0696516 -0.759135 0.687535 
0.207003 -4.52972 0.874299 -0.00827585 -5.19318 0.478134 0.0143238 -5.8983 0.712291 
0.330909 -6.47344 1.74386 0.0615965 -0.241462 0.416382 0.0967595 -1.42327 0.89651 
0.659935 -6.18728 2.6757 0.0335184 -0.989444 0.726469 0.304148 -2.15538 1.23016 
0.441248 -3.16594 1.43248 1.32022 -5.08523 3.68057 0.338714 -4.17943 1.15001 
0.0784107 -6.2421 1.05074 0.0596368 -4.95623 0.563516 -0.064816 -5.5463 0.409689 
0.0560191 -0.548279 0.569392 0.0324956 -1.1902 0.805492 0.979852 -5.5611 3.26941 
0.208375 -1.77664 1.13333 0.281139 -6.22626 1.76261 0.410026 -2.69739 1.46194 
0.0219138 -0.800561 0.642343 0.428577 -3.7432 1.38843 -0.0822277 -5.90642 0.527647 
0.186394 -4.66773 0.81246 -0.0536995 -5.27695 0.327611 0.0386355 -0.353002 0.438552 
0.566773 -5.80819 2.52202 0.108451 -1.45874 1.01187 -0.00767229 -0.994235 0.711573 
0.334914 -2.24831 1.41586 -0.00345112 -6.07979 0.961498 0.455437 -3.25756 1.53964 
-0.134784 -5.57247 0.238121 0.316513 -4.27323 1.11667 0.032265 -5.03612 0.455956 
1.16759 -4.76539 3.1954 0.0100365 -0.613928 0.535851 0.191666 -5.87407 1.65533 
0.0230896 -1.20144 0.881492 0.233004 -1.84465 1.31156 0.860358 -5.17172 2.89386 
-0.163841 -5.81092 0.390767 0.423063 -2.76593 1.59627 -0.0290341 -0.815322 0.610553 
0.405272 -3.78919 1.38294 -0.090649 -5.30004 0.196495 0.155067 -4.71847 0.721488 
-0.00356135 -0.442879 0.420906 0.469074 -5.39387 2.27763 -0.0372993 -0.991945 0.749946 
-0.0857436 -5.78154 0.865064 0.123215 -1.50092 1.16928 0.345682 -2.29956 1.56843 
0.433637 -3.2686 1.56368 -0.193734 -5.51616 0.103937 0.271972 -4.27673 1.02971 
0.0107668 -5.03685 0.35102 1.0121 -4.43998 2.66032 -0.0453125 -0.6475 0.500685 
0.10605 -5.44695 1.50534 0.0237106 -1.21976 1.00872 0.240169 -1.87845 1.47015 
-0.0727172 -0.811121 0.618569 -0.233615 -5.58059 0.292247 0.7412 -4.77358 2.43467 
0.403687 -2.75728 1.64983 0.350635 -3.74572 1.30305 -0.123254 -5.24792 0.0822837 
0.126277 -4.68106 0.616674 0.383251 -4.9567 1.95825 -0.0591809 -0.501523 0.393411 
-0.158675 -5.36716 0.773021 -0.0526351 -0.99304 0.843814 0.124077 -1.51313 1.31785 
0.328009 -2.28231 1.64826 0.376689 -3.18924 1.50103 -0.248744 -5.34027 0.00526259 
0.222937 -4.19718 0.909286 -0.00498381 -4.95861 0.249392 0.855359 -4.10139 2.09999 
-0.0984215 -0.653015 0.49963 0.0300715 -4.97138 1.28653 -0.101569 -0.805149 0.679886 
0.223384 -1.85737 1.56859 0.0141824 -1.20433 1.1294 0.349624 -2.65767 1.61201 
-0.293336 -5.19374 0.246345 0.282802 -3.62501 1.17101 0.10743 -4.57058 0.506107 
-0.159247 -5.09275 -0.022913 0.625998 -4.35446 1.90427 0.306936 -4.53128 1.57082 
-0.11547 -0.530301 0.401728 -0.201666 -4.82566 0.701065 0.107316 -1.48644 1.4214 
0.27819 -2.17732 1.63813 0.298691 -3.03432 1.37033 -0.0755666 -0.943128 0.915213 
0.185895 -4.0551 0.775833 -0.305585 -5.01049 -0.0714311 -0.0247328 -4.80094 0.138858 
0.697667 -3.74154 1.53121 -0.131813 -0.699412 0.627504 0.0433268 -4.40037 1.06491 
0.177236 -1.75586 1.58281 0.27067 -2.48154 1.49621 -0.00439626 -1.16509 1.21825 
0.222928 -3.45351 1.01358 -0.347116 -4.68612 0.181396 0.0943649 -4.40119 0.386623 
-0.2102 -4.80996 -0.134475 0.427237 -4.04147 1.31991 -0.151707 -0.54257 0.472715 
-0.0987248 -0.879228 0.952081 0.204301 -1.99895 1.54667 -0.224183 -4.28434 0.516262 
0.0638744 -1.38733 1.44608 0.220883 -2.83368 1.20002 0.16446 -3.87375 0.63575 
-0.0600608 -4.55395 0.00688149 -0.370069 -4.53703 -0.153454 0.561939 -3.41384 1.04688 
-0.14625 -0.689029 0.728009 0.0759005 -3.94857 0.760963 0.111677 -1.59393 1.52085 
-0.0467254 -1.05554 1.22019 0.184547 -2.26009 1.32763 0.183346 -3.25751 0.848941 
0.0730395 -4.17837 0.243513 -0.385421 -4.12653 0.0553554 -0.276593 -4.40193 -0.262841 
0.350055 -3.65164 0.839156 0.0109078 -1.25701 1.41361 0.120054 -1.77573 1.39354 
-0.169527 -0.557445 0.611212 -0.177946 -3.76964 0.266775 0.161116 -2.61983 1.0143 
0.148493 -3.66305 0.483488 -0.118877 -4.21345 -0.15771 -0.130536 -0.777174 0.954231 
-0.433412 -4.00953 -0.287299 0.42493 -3.07133 0.570056 0.154739 -3.44133 0.366045 
-0.0784316 -0.976529 1.23007 0.0384193 -1.39725 1.39695 0.109912 -2.02959 1.1304 
0.160622 -3.04907 0.680574 0.0331057 -3.89735 0.0698201 -0.402094 -3.63673 -0.182288 
-0.356351 -3.91093 -0.426555 -0.044574 -1.11023 1.33261 -0.174183 -0.571221 0.748088 
0.0411863 -1.54166 1.19795 -0.1655 -3.35155 -0.107534 0.123774 -2.40478 0.825903 
0.123516 -3.42168 0.308772 -0.19244 -3.80014 -0.34881 -0.144546 -0.743753 1.02418 
-0.488227 -3.49935 -0.501854 0.311674 -2.78611 0.188048 -0.114703 -0.882044 1.20511 
0.10116 -3.06261 -0.0584364 -0.0337848 -1.17998 1.21619 0.0564997 -1.79963 0.92565 
-0.0253699 -3.5612 -0.13261 -0.429141 -3.42812 -0.635393 0.140956 -2.83144 0.499138 
-0.386289 -3.19175 -0.510557 -0.104412 -0.923075 1.18338 -0.182862 -0.566119 0.859929 
-0.0236365 -1.29489 0.983504 -0.525897 -3.08178 -0.795747 -0.267227 -3.35966 -0.562977 
0.0806654 -3.15082 0.102717 0.100452 -2.19517 0.633963 -0.172672 -0.669526 1.03384 
-0.0931034 -2.89701 -0.482323 0.192812 -2.49815 -0.197502 -0.160674 -0.734651 1.10211 
-0.102662 -0.921679 1.00177 -0.401194 -2.85036 -0.870263 -0.487083 -2.99767 -0.892042 
-0.0992829 -3.18739 -0.365484 0.0234729 -1.5843 0.722407 0.112078 -2.60687 0.295997 
-0.170723 -0.668261 0.977663 -0.208142 -0.506003 0.887612 0.0921524 -2.27527 -0.509238 
-0.160456 -2.59682 -0.840732 -0.557337 -2.72666 -1.12816 -0.0675845 -1.06253 0.772038 
-0.348306 -2.92211 -0.820648 0.0213982 -2.85402 -0.127638 0.0798845 -2.00148 0.432522 
-0.209103 -0.544193 0.951326 -0.443966 -2.54236 -1.23352 -0.153607 -0.674467 0.792917 
-0.179758 -2.80781 -0.617686 -0.548577 -2.59891 -1.21587 0.00651824 -1.41553 0.518107 
0.0703645 -2.3637 0.0806104 -0.218818 -0.446068 0.803084 -0.0148454 -2.06998 -0.822402 
-0.243762 -2.32417 -1.17553 -0.239451 -0.383303 0.800908 -0.0836777 -0.907484 0.566268 
-0.0418706 -2.54631 -0.353681 -0.429525 -2.52957 -1.1129 -0.568278 -2.37487 -1.4955 
0.0525214 -1.80189 0.224315 -0.168082 -0.53158 0.600093 -0.24703 -2.46121 -0.850252 
-0.597152 -2.26353 -1.55978 0.0203846 -2.11042 -0.134331 -0.396893 -2.17164 -1.51403 
-0.00886404 -1.24981 0.317512 -0.222649 -0.323811 0.605412 -0.252189 -0.256979 0.650601 
-0.13294 -1.88866 -1.1415 -0.480549 -2.21875 -1.36344 -0.104114 -2.24928 -0.569002 
-0.0929135 -0.755265 0.374424 0.0179824 -1.59156 0.0213292 -0.530906 -2.05091 -1.7659 
-0.173662 -0.383824 0.406352 -0.313816 -2.14245 -1.08476 -0.611632 -2.0142 -1.78302 
-0.248957 -1.74863 -1.42464 -0.0307772 -1.86108 -0.333716 -0.232882 -0.174999 0.447736 
-0.0271432 -1.07613 0.135806 -0.166429 -1.97653 -0.775495 -0.530231 -1.92286 -1.61698 
-0.557005 -1.83261 -1.92106 -0.106131 -0.57561 0.220218 -0.018117 -1.38281 -0.161916 
-0.360802 -1.63737 -1.6666 -0.179283 -0.232338 0.262042 -0.38186 -1.84311 -1.31719 
-0.607504 -1.72891 -1.96433 -0.0835753 -1.6478 -0.528254 -0.0519206 -0.842297 0.0308367 
-0.228927 -1.72047 -0.968721 -0.480316 -1.52294 -1.88376 -0.562633 -1.62959 -1.82115 
-0.110851 -0.424447 0.0925066 -0.040063 -1.05824 -0.180663 -0.0682957 -1.3041 -0.43267 
-0.441218 -1.5612 -1.51545 -0.151596 -1.44131 -0.752757 -0.553048 -1.42294 -1.96211 
-0.0621722 -0.6849 -0.0873874 -0.296193 -1.47427 -1.15579 -0.538722 -1.33676 -1.83112 
-0.0605953 -0.954773 -0.324285 -0.419094 -1.28026 -1.47661 -0.117363 -1.14697 -0.616651 
-0.241075 -1.24081 -0.999 
