# vtk DataFile Version 3.0
vtk output
ASCII
DATASET POLYDATA
POINTS 724 float
10.208 -10.4968 11.1143 10.4172 -11.5395 11.0052 10.0267 -9.34723 11.3434 
10.6406 -12.4504 10.9824 9.90887 -8.31704 11.6668 10.2017 -9.81702 11.597 
10.8783 -13.2423 11.0273 9.84419 -7.35905 12.0887 10.3877 -10.7144 11.5425 
10.0917 -8.90303 11.8998 10.582 -11.5263 11.5373 10.778 -12.3026 11.5104 
11.0982 -13.8574 11.1292 10.0075 -8.02993 12.2309 9.8354 -6.47075 12.5964 
10.3034 -9.74709 12.03 10.9723 -12.8304 11.648 10.5085 -10.6598 12.0373 
9.96742 -7.19109 12.6476 10.1885 -8.7563 12.379 11.3117 -14.3616 11.2856 
9.88439 -5.59062 13.1964 10.7381 -11.5872 12.0516 11.1817 -13.3942 11.7497 
9.96357 -6.33395 13.124 10.1142 -7.82168 12.7753 10.3791 -9.55968 12.4847 
10.9723 -12.3094 12.195 11.5182 -14.7725 11.4968 10.5745 -10.4296 12.5167 
9.96649 -4.85901 13.753 10.0809 -6.88366 13.2425 10.2747 -8.52827 12.8812 
11.3909 -13.8719 11.8975 10.0536 -5.80853 13.6823 10.7802 -11.2209 12.5996 
11.2096 -12.9591 12.3328 10.4453 -9.2944 12.9661 10.2123 -7.53672 13.321 
10.0838 -4.13069 14.375 11.7234 -15.1126 11.7703 11.6023 -14.3197 12.0629 
11.0032 -11.9383 12.7476 10.1175 -5.01222 14.2034 10.6233 -10.0806 13.0354 
10.1785 -6.50861 13.7839 10.358 -8.23268 13.4014 11.4584 -13.5664 12.4659 
10.8197 -10.8396 13.1509 10.2056 -5.62465 14.2725 10.3079 -7.19953 13.8602 
10.5146 -8.96314 13.484 11.2464 -12.6432 12.8812 11.8965 -15.3481 12.0533 
10.2216 -4.25035 14.7939 10.2305 -3.44221 15.0626 11.7435 -14.3529 12.4424 
10.6842 -9.71378 13.5778 11.041 -11.5913 13.2978 10.3084 -6.24559 14.3501 
10.4476 -7.89851 13.9386 11.5213 -13.3919 12.936 10.2838 -4.75713 14.8451 
11.9486 -14.7733 12.61 10.8753 -10.4685 13.7083 10.5988 -8.61702 14.0277 
10.4234 -6.89552 14.4183 11.2935 -12.3818 13.4083 10.3529 -5.30365 14.8858 
10.364 -3.73787 15.4211 10.3783 -2.87187 15.7236 12.0855 -15.5497 12.4173 
11.7479 -13.9014 13.0329 10.7648 -9.35154 14.1382 11.0947 -11.2591 13.8475 
10.554 -7.5738 14.4954 10.4379 -5.90132 14.9288 10.4219 -4.28253 15.4592 
11.5426 -13.0301 13.5307 11.9623 -14.3247 13.1701 10.5203 -2.36357 16.3665 
10.5066 -3.32082 16.0266 12.1498 -14.9713 13.0029 10.9518 -10.1082 14.2738 
10.7001 -8.27689 14.5916 10.542 -6.54368 14.983 10.4819 -4.87925 15.466 
11.3335 -12.0098 13.9917 12.2711 -15.6905 12.8325 11.7948 -13.5925 13.6518 
10.5565 -3.94148 16.0235 10.8632 -8.99904 14.7115 10.5598 -5.50668 15.4862 
10.6663 -7.22327 15.0582 11.1626 -10.8728 14.4288 11.5938 -12.7162 14.1253 
10.6368 -2.64139 16.679 12.0803 -14.2632 13.6411 10.6873 -1.76686 17.1529 
10.6107 -4.54532 16.0118 12.3066 -14.9588 13.4827 10.6593 -6.16918 15.5328 
10.8102 -7.92537 15.1614 11.0463 -9.7338 14.8579 10.664 -3.17985 16.6221 
11.4017 -11.6549 14.5777 12.4389 -15.7673 13.2572 11.8919 -13.4653 14.1659 
10.6838 -5.16671 16.0226 10.6956 -3.72349 16.5765 10.7812 -6.85763 15.6141 
10.9732 -8.63917 15.2925 11.254 -10.5005 15.0135 11.679 -12.4851 14.6702 
12.1901 -14.173 14.1238 10.7907 -2.26589 17.3469 10.8456 -1.18211 17.9277 
10.7422 -4.28013 16.5479 12.4375 -14.8615 13.9908 10.7796 -5.81334 16.0734 
10.9255 -7.56361 15.7285 11.156 -9.37232 15.4419 10.8039 -2.90306 17.2099 
12.59 -15.7959 13.6788 11.4922 -11.3285 15.1426 11.975 -13.2639 14.6966 
10.9457 -1.50354 18.1645 10.8108 -4.84865 16.5629 10.8263 -3.46896 17.1206 
10.8994 -6.49283 16.1638 11.0907 -8.28332 15.8675 11.3611 -10.1473 15.5876 
12.2606 -13.9428 14.6669 11.7558 -12.1546 15.2312 10.9389 -2.11422 17.9423 
12.6166 -15.1119 14.2732 11.0402 -0.45258 18.8803 10.8722 -3.97968 17.0999 
10.9018 -5.46113 16.6167 11.0444 -7.20067 16.2874 11.2744 -9.02224 16.015 
12.0278 -12.9003 15.2758 10.9359 -2.71407 17.7549 11.5881 -10.9471 15.7152 
12.4901 -14.402 14.7342 12.7572 -15.7837 14.1934 11.1117 -1.00202 18.9397 
10.9369 -4.51287 17.1141 11.0193 -6.12457 16.7108 10.9617 -3.18869 17.6957 
11.2121 -7.92809 16.4307 12.2796 -13.4775 15.3276 11.4748 -9.77521 16.1597 
11.8335 -11.7318 15.8159 11.0672 -1.86035 18.503 12.7368 -14.9389 14.8339 
11.2361 0.275441 19.7992 11.0242 -5.0992 17.1652 11.0044 -3.65969 17.6713 
11.1647 -6.83092 16.8379 12.5266 -14.016 15.3533 11.3964 -8.66093 16.5808 
11.6918 -10.5335 16.2923 12.0851 -12.4304 15.9015 11.076 -2.37335 18.377 
12.9056 -15.734 14.6983 11.2149 -1.01953 19.3129 11.3267 -0.0739099 20.0051 
11.0653 -4.16636 17.6773 11.1394 -5.74854 17.2562 11.3342 -7.55913 16.9848 
11.0996 -2.8332 18.302 11.5944 -9.39128 16.7286 12.3413 -13.0716 15.9554 
11.9241 -11.2723 16.4104 12.7291 -14.3816 15.4807 11.2171 -1.52034 19.1652 
12.9123 -15.0077 15.3225 11.4531 1.10627 20.7851 11.1491 -4.73265 17.7201 
11.2851 -6.45027 17.3828 11.1388 -3.29783 18.2591 11.5206 -8.28663 17.1394 
11.8059 -10.1162 16.8692 12.1698 -11.9914 16.5001 12.5782 -13.5691 16.0443 
11.2241 -1.98256 19.0328 13.0574 -15.6426 15.2706 11.3793 -0.479517 20.0743 
11.2626 -5.36997 17.8042 11.1968 -3.79808 18.2502 11.457 -7.17794 17.5327 
11.7193 -9.00479 17.2932 11.5228 0.601196 20.8871 11.2436 -2.43703 18.9282 
12.8292 -14.1861 16.0209 12.0324 -10.8459 16.9891 12.4155 -12.6245 16.5849 
11.3763 -1.00514 19.8957 13.0315 -14.8262 15.9113 11.6416 1.9099 21.645 
11.2795 -4.35966 18.2808 11.4086 -6.06661 17.9275 11.2792 -2.90712 18.8579 
11.6469 -7.90627 17.6925 11.9302 -9.7232 17.436 12.2689 -11.5517 17.0896 
11.3777 -1.50204 19.7148 12.6741 -13.297 16.5999 11.546 0.0766142 20.8229 
13.1887 -15.5225 15.8275 11.393 -4.99248 18.3569 11.3356 -3.41799 18.8271 
11.5828 -6.79541 18.0782 12.9226 -13.9648 16.5577 11.8495 -8.62918 17.8501 
11.3932 -1.98887 19.5653 11.6985 1.279 21.6719 12.1529 -10.4417 17.5598 
12.5181 -12.2879 17.1354 11.5365 -0.488199 20.6039 13.1358 -14.647 16.4595 
11.8024 2.69067 22.372 11.4192 -3.98477 18.8455 11.5399 -5.68874 18.4752 
11.4256 -2.49656 19.4541 11.777 -7.53207 18.2404 11.534 -1.02432 20.3782 
12.0622 -9.34984 17.9956 12.7701 -13.0208 17.1279 12.3872 -11.1942 17.6384 
11.7069 0.646001 21.5244 13.3016 -15.3759 16.3701 11.4827 -3.02905 19.4027 
11.5347 -4.62168 18.9139 11.5456 -1.56714 20.1729 11.7161 -6.4232 18.6234 
13.0133 -13.7386 17.073 11.9842 -8.26599 18.4001 11.6928 0.0122354 21.2622 
12.2851 -10.094 18.109 11.8548 1.95181 22.3525 12.6278 -11.9686 17.6636 
13.2277 -14.4535 16.9844 11.5799 -2.09761 20.0393 11.5698 -3.61075 19.4105 
11.6837 -0.625282 20.962 11.6836 -5.32399 19.0262 11.9474 3.44473 22.9809 
11.9137 -7.17011 18.7839 12.2008 -9.00946 18.5408 12.8686 -12.7416 17.6393 
11.8558 1.19289 22.1396 12.5146 -10.8661 18.1742 13.3986 -15.2034 16.8989 
11.8275 0.350717 21.7587 11.7019 -1.17954 20.7524 11.6403 -2.64728 19.9747 
11.6901 -4.26035 19.4725 13.1013 -13.4948 17.5788 11.8615 -6.06651 19.1689 
12.1248 -7.92274 18.9393 12.4241 -9.77093 18.6477 12.7448 -11.659 18.1853 
11.9948 2.55654 22.915 13.3106 -14.2355 17.4993 11.9625 1.38393 22.4826 
11.8346 -0.262235 21.5042 11.7421 -1.71605 20.6142 11.7323 -3.2463 19.9746 
11.8428 -4.97408 19.5798 12.0601 -6.82538 19.322 12.9717 -12.4524 18.1506 
12.0884 4.15721 23.501 12.3439 -8.68406 19.0751 12.6492 -10.5536 18.7066 
13.4826 -15.0048 17.4164 12.0756 2.39874 23.0776 11.9699 0.7007 22.2413 
11.8632 -0.806971 21.3139 11.8072 -2.27784 20.5427 13.1904 -13.2285 18.0875 
11.8589 -3.91243 20.0326 12.0216 -5.72608 19.7146 12.2717 -7.59025 19.4697 
12.8699 -11.3523 18.7124 12.5675 -9.45805 19.1795 12.1556 3.55276 23.5647 
13.3902 -13.9891 18.0161 11.9912 0.116618 22.0326 12.0999 1.73247 22.9166 
11.9102 -1.34697 21.1788 11.9046 -2.89422 20.5375 12.0167 -4.63873 20.1354 
12.2182 -6.49116 19.8577 13.0826 -12.153 18.6738 12.4908 -8.36245 19.6003 
12.7895 -10.2468 19.2399 12.256 4.90444 24.04 13.558 -14.7813 17.9267 
12.2086 2.90426 23.5237 12.0275 -0.432205 21.858 12.1218 1.10868 22.7264 
11.9809 -1.92092 21.1048 13.2856 -12.9407 18.6112 12.0382 -3.57747 20.5936 
12.1962 -5.39609 20.2625 12.4261 -7.26041 19.9948 13.0024 -11.0464 19.249 
12.7136 -9.14512 19.7048 12.3077 4.12725 24.042 13.4724 -13.7125 18.5484 
12.2402 2.22051 23.3695 12.1508 0.520593 22.5401 12.0814 -0.984793 21.7282 
12.0841 -2.55494 21.0984 12.2016 -4.31361 20.694 12.3886 -6.1609 20.3942 
13.203 -11.8469 19.2143 12.6413 -8.03683 20.1188 12.9327 -9.93862 19.7716 
13.6287 -14.5351 18.4329 12.4321 5.56442 24.5608 12.3445 3.3948 23.9453 
12.2711 1.57327 23.1909 12.1931 -0.0493887 22.3771 13.3909 -12.6365 19.158 
12.1591 -1.57487 21.6578 12.2243 -3.25378 21.1557 12.3822 -5.07125 20.8149 
12.5891 -6.92698 20.5195 13.1397 -10.7384 19.7921 12.8599 -8.82369 20.2227 
12.4651 4.67686 24.5049 13.5629 -13.4079 19.109 12.3769 2.69379 23.7864 
12.3077 0.953612 23.0165 12.2538 -0.625055 22.2568 12.2693 -2.22673 21.6564 
12.3931 -3.99565 21.257 12.5697 -5.82915 20.9359 13.3308 -11.5359 19.7701 
12.7955 -7.70084 20.6336 13.0743 -9.61933 20.2974 13.6978 -14.2723 18.9326 
12.6158 6.15661 25.0916 12.4854 3.87958 24.361 12.4144 2.0309 23.6159 
12.3565 0.348269 22.8656 12.3399 -1.23674 22.1967 13.5059 -12.3222 19.7282 
12.4156 -2.93838 21.7205 12.5751 -4.74746 21.3742 12.76 -6.58547 21.0476 
13.2757 -10.4173 20.3341 13.0049 -8.48537 20.7339 13.7657 -14.003 19.4158 
13.2112 -9.27842 20.8151 12.953 -7.34878 21.1495 12.7578 -5.4922 21.4866 
12.5885 -3.68122 21.8268 12.5124 3.15107 24.1849 12.4595 1.38868 23.4552 
12.4584 -1.90624 22.2086 12.425 -0.261097 22.7589 12.6316 5.20482 24.9795 
13.4587 -11.2061 20.3335 13.6653 -13.0841 19.7051 13.1482 -8.12356 21.2428 
13.4053 -10.0706 20.8691 12.9369 -6.23188 21.5857 12.7707 -4.42214 21.9443 
12.6108 -2.62689 22.2871 13.6226 -11.9735 20.3183 12.5204 -0.900537 22.7165 
12.517 0.752953 23.3216 12.5531 2.47335 24.0146 12.6349 4.35752 24.7868 
12.8007 6.70948 25.6272 13.8381 -13.7097 19.9176 13.3417 -8.9082 21.3263 
13.114 -6.97757 21.6738 13.5808 -10.8449 20.897 12.9487 -5.14828 22.051 
12.7863 -3.36676 22.4045 12.6483 -1.58725 22.7505 12.5937 0.108852 23.2345 
12.6066 1.81794 23.8663 12.6524 3.59696 24.5833 13.7697 -12.692 20.3381 
12.8072 5.72834 25.4753 13.2909 -7.73606 21.7568 13.5258 -9.68949 21.3958 
13.1173 -5.86559 22.1399 12.9671 -4.09279 22.5274 12.8075 -2.31487 22.8513 
[...]
POINT_DATA 724
VECTORS velocity double
1.02516 -1.42547 1.21324 1.18233 -1.11419 1.31324 0.883956 -1.92128 1.03861 
1.33732 -0.862875 1.31957 0.78122 -2.54919 0.864631 0.920857 -1.86972 1.06455 
1.47101 -0.589284 1.2375 0.707246 -3.28297 0.717928 1.03853 -1.57247 1.18164 
0.810713 -2.38927 0.893979 1.16871 -1.3771 1.24623 1.31465 -1.16179 1.25682 
1.56043 -0.319958 1.10541 0.729733 -2.99909 0.746439 0.670565 -4.05758 0.613889 
0.868776 -2.08673 0.970464 1.41097 -1.04119 1.19128 0.974003 -1.81011 1.07447 
0.676775 -3.68883 0.632901 0.750609 -2.66657 0.783816 1.61506 -0.0641728 0.947404 
0.679298 -4.84728 0.549041 1.12141 -1.61021 1.13983 1.51331 -0.812902 1.08381 
0.662307 -4.42424 0.562867 0.675736 -3.35096 0.641908 0.787384 -2.33006 0.848077 
1.24512 -1.49213 1.10523 1.64095 0.160589 0.781104 0.865938 -2.05595 0.939316 
0.716759 -5.48676 0.521757 0.64484 -4.11886 0.556768 0.678382 -2.95399 0.669638 
1.58605 -0.569584 0.942242 0.673088 -4.96032 0.527645 0.963309 -1.91658 0.991404 
1.37006 -1.29681 1.01498 0.695159 -2.57958 0.723933 0.625911 -3.68738 0.559515 
0.76499 -6.13867 0.519966 1.64422 0.353016 0.612575 1.63473 -0.28681 0.778783 
1.0716 -1.82927 0.985152 0.71984 -5.61346 0.519976 0.737618 -2.30445 0.796279 
0.632178 -4.49982 0.517823 0.611187 -3.23529 0.578742 1.48629 -0.987141 0.876254 
0.802371 -2.15835 0.854244 0.675852 -5.20509 0.512855 0.592794 -3.98861 0.514199 
0.607746 -2.82545 0.622445 1.20952 -1.65762 0.929104 1.6322 0.488714 0.474494 
0.773606 -6.26863 0.534151 0.811923 -6.81683 0.557493 1.61737 -0.3528 0.677457 
0.623631 -2.51432 0.687745 0.900358 -2.0724 0.882815 0.623965 -4.71786 0.503579 
0.560389 -3.48502 0.527862 1.38475 -1.26381 0.814427 0.737985 -5.91325 0.526355 
1.63698 -0.0132783 0.516049 0.665245 -2.32652 0.759664 0.539795 -3.0322 0.567378 
0.571923 -4.18771 0.50169 1.05603 -1.90997 0.867445 0.687308 -5.45297 0.515174 
0.813489 -6.79083 0.575784 0.858733 -7.40761 0.641982 1.60627 0.607827 0.336791 
1.48513 -0.887228 0.684269 0.537099 -2.67314 0.634159 0.752541 -2.21827 0.823307 
0.526456 -3.66099 0.517456 0.626477 -4.91604 0.506558 0.769743 -6.33148 0.553408 
1.2039 -1.63934 0.796447 1.54274 -0.51661 0.550548 0.913187 -7.87281 0.783908 
0.849116 -7.21528 0.64561 1.6111 0.124314 0.387614 0.562003 -2.42836 0.721506 
0.4933 -3.17939 0.560148 0.563347 -4.34629 0.508543 0.70737 -5.74515 0.529652 
0.88111 -2.10212 0.847924 1.56985 0.696107 0.224791 1.33278 -1.25563 0.690066 
0.786903 -6.6095 0.592383 0.478577 -2.77926 0.63352 0.635164 -5.11063 0.515286 
0.506339 -3.78623 0.530754 0.62591 -2.28606 0.810522 1.03926 -1.86327 0.818198 
0.91325 -7.78325 0.804188 1.47648 -0.622428 0.524948 0.989148 -8.22461 1.06649 
0.714115 -5.93528 0.549578 1.56302 0.0911183 0.338239 0.559985 -4.46954 0.518244 
0.463363 -3.27679 0.581669 0.489422 -2.48371 0.732058 0.854465 -7.3084 0.714686 
0.741249 -2.16782 0.873949 1.52844 0.752224 0.153601 1.23424 -1.37936 0.71169 
0.633827 -5.23296 0.52404 0.782486 -6.70174 0.636189 0.491941 -3.86628 0.546992 
0.440224 -2.84574 0.66375 0.537263 -2.28586 0.840267 0.920425 -1.93221 0.872001 
1.39968 -0.714687 0.544023 0.952235 -7.97329 1.00036 1.07225 -8.32144 1.48801 
0.704343 -6.0193 0.574297 1.49823 0.00229364 0.349851 0.550469 -4.54413 0.522765 
0.440524 -3.33121 0.607348 0.441947 -2.50318 0.771014 0.86123 -7.41607 0.824585 
1.48364 0.784939 0.121018 0.639675 -2.14048 0.927524 1.12003 -1.48365 0.782046 
1.04234 -8.17822 1.45605 0.620044 -5.3102 0.534782 0.77225 -6.76713 0.70026 
0.47375 -3.90573 0.553355 0.411298 -2.87618 0.69845 0.476767 -2.24957 0.887175 
1.2846 -0.889621 0.632837 0.794138 -1.94193 0.950369 0.945002 -7.85327 1.16684 
1.46497 0.268797 0.287889 1.21512 -8.20758 2.18598 0.687388 -6.09728 0.615739 
0.530598 -4.59545 0.522483 0.415312 -3.34863 0.620121 0.406851 -2.50134 0.810687 
0.966119 -1.59528 0.892799 0.84137 -7.33382 0.935737 0.552271 -2.06866 0.981732 
1.35252 -0.401301 0.513216 1.42276 0.803156 0.123597 1.11553 -8.06756 1.93324 
0.596697 -5.38345 0.55517 0.44648 -3.92533 0.547331 0.751368 -6.76784 0.794667 
0.38193 -2.88029 0.718218 1.09671 -1.16336 0.794791 0.4287 -2.20827 0.925139 
0.666606 -1.88901 1.02112 0.943337 -7.72688 1.3829 1.37705 0.166217 0.36689 
1.43117 -8.02697 2.96143 0.500474 -4.64686 0.524176 0.661245 -6.13714 0.682771 
0.382222 -3.34698 0.614602 1.19884 -0.659672 0.663375 0.373325 -2.49284 0.832462 
0.478201 -1.98612 1.01661 0.794632 -1.62853 0.992699 0.832855 -7.27697 1.13319 
1.35386 0.804163 0.157375 1.08715 -7.8405 2.02154 1.34477 -7.95085 2.81691 
0.564593 -5.4381 0.594817 0.409378 -3.94613 0.535145 0.346198 -2.87275 0.716199 
0.734317 -6.75862 0.945447 0.385671 -2.17542 0.942772 0.921753 -1.25285 0.903171 
0.552923 -1.79412 1.05939 1.22524 -0.261701 0.565286 0.951953 -7.53789 1.68225 
1.28806 0.305693 0.376819 1.68666 -7.8546 3.7629 0.461997 -4.69572 0.538287 
0.340044 -3.34518 0.595833 0.636062 -6.16086 0.790852 0.335956 -2.48288 0.83228 
0.415569 -1.91742 1.0276 0.648894 -1.56489 1.03752 1.00181 -0.842142 0.792737 
0.83594 -7.16477 1.39711 1.26061 0.789124 0.210398 1.19921 -7.72826 2.53464 
0.364802 -3.97418 0.528072 0.531667 -5.48097 0.664946 0.302519 -2.86388 0.697228 
0.34347 -2.15332 0.941148 1.52452 -7.85805 3.4397 0.728789 -6.70783 1.15374 
1.09359 -0.301377 0.62408 0.462584 -1.69575 1.06579 0.741527 -1.26039 0.957064 
1.02815 -7.44253 2.11801 1.15801 0.249772 0.438883 1.80809 -7.67913 4.29479 
0.422179 -4.74102 0.574588 0.291308 -3.35284 0.575335 0.620862 -6.1545 0.94502 
0.293161 -2.47406 0.816091 0.362651 -1.86935 1.023 0.52236 -1.47211 1.04137 
0.88453 -7.09618 1.74745 0.847408 -0.837337 0.818181 1.32888 -7.68184 3.01554 
1.15071 0.757829 0.253253 0.319271 -4.00997 0.536548 0.506805 -5.49989 0.769412 
0.253483 -2.86224 0.672203 0.943269 -0.329578 0.644525 0.301139 -2.13964 0.928483 
0.756077 -6.67033 1.42442 1.62429 -7.79206 3.87609 0.390035 -1.62084 1.05686 
0.602326 -1.18728 0.949123 1.13403 -7.40828 2.54227 1.01397 0.208647 0.457168 
1.80451 -7.46742 4.52566 0.389437 -4.77476 0.637531 0.242824 -3.37505 0.564508 
0.628545 -6.13879 1.14005 0.247465 -2.47139 0.793545 0.965211 -7.06702 2.10433 
0.316774 -1.84285 1.01298 0.695306 -0.806674 0.801359 0.428945 -1.37954 1.02531 
1.42816 -7.68642 3.39287 1.02335 0.709912 0.268964 0.499566 -5.50607 0.904838 
0.281447 -4.04878 0.566105 0.807544 -6.63796 1.69583 0.206106 -2.87591 0.652099 
0.787092 -0.338906 0.622856 0.25979 -2.13721 0.911935 1.23351 -7.4384 2.88847 
0.33571 -1.57138 1.04853 1.62495 -7.69313 4.0881 0.483419 -1.10711 0.921733 
0.858562 0.16752 0.436078 0.658747 -6.11993 1.34826 0.371866 -4.80069 0.724426 
1.04014 -7.07001 2.3716 0.203806 -3.41269 0.570276 1.77904 -7.23495 4.54333 
0.204837 -2.48376 0.772451 0.278181 -1.83348 1.00483 0.554089 -0.763634 0.762378 
1.4603 -7.6812 3.60573 0.357649 -1.31277 1.01276 0.881104 0.646615 0.252222 
1.2673 -7.44608 3.03077 0.870109 -6.63794 1.93247 0.5121 -5.50836 1.05587 
0.259145 -4.09148 0.615463 0.631337 -0.34247 0.576464 0.169841 -2.91167 0.643733 
0.22326 -2.14924 0.895938 0.294574 -1.55092 1.04738 0.387311 -1.04048 0.898419 
1.57062 -7.57813 4.09705 0.697081 0.121607 0.387802 1.40843 -7.6355 3.53895 
1.09652 -7.10444 2.55343 0.70569 -6.1297 1.54598 0.371945 -4.82693 0.825464 
0.182562 -3.46786 0.593439 0.17307 -2.51753 0.757553 0.430485 -0.722804 0.724707 
1.80011 -6.98091 4.47026 0.24625 -1.84453 0.997448 0.305958 -1.27944 1.01428 
0.729525 0.571201 0.208602 1.45778 -7.59333 3.82665 1.27228 -7.46 3.09038 
0.931304 -6.68929 2.12113 0.541571 -5.53493 1.2065 0.485145 -0.345376 0.52583 
0.255079 -4.14404 0.678419 0.152735 -2.9728 0.649138 0.195446 -2.18174 0.879957 
0.315565 -1.00123 0.894969 0.263687 -1.55859 1.05108 1.58232 -7.33807 4.10185 
0.537967 0.0722352 0.32933 1.13249 -7.17252 2.66729 1.34795 -7.5922 3.45113 
0.759142 -6.19301 1.71611 0.387947 -4.8763 0.930466 0.182512 -3.5448 0.630815 
0.158432 -2.57736 0.7498 0.331608 -0.696079 0.708061 0.221041 -1.87654 0.986018 
0.270495 -1.28057 1.029 1.87858 -6.66991 4.38622 0.576754 0.488641 0.151177 
1.39958 -7.51197 3.70289 0.978814 -6.78915 2.25255 1.25038 -7.47568 3.08265 
0.581047 -5.61103 1.34346 0.35904 -0.352261 0.492173 0.267919 -4.22302 0.749242 
0.158229 -3.06198 0.667436 0.179923 -2.2365 0.862951 0.267484 -0.996178 0.915338 
0.23987 -1.59037 1.05105 1.58248 -7.18246 3.95265 0.391744 0.0205463 0.281351 
1.2855 -7.54906 3.35125 1.13842 -7.24844 2.70493 0.806673 -6.31151 1.84402 
0.415373 -4.97085 1.03233 0.202014 -3.65209 0.680127 0.163992 -2.66343 0.750038 
0.262011 -0.693994 0.723601 0.202956 -1.9268 0.966129 0.246134 -1.31138 1.04625 
0.433162 0.403587 0.0975275 1.96624 -6.37864 4.35836 1.35663 -7.42518 3.5415 
1.20226 -7.47936 3.0162 1.00137 -6.91067 2.31447 0.262825 -0.370615 0.493254 
0.621465 -5.74372 1.45536 0.294046 -4.3444 0.826628 0.184492 -3.1803 0.69933 
0.179059 -2.31148 0.846286 0.238115 -1.02475 0.950309 0.220082 -1.63954 1.03801 
1.61282 -6.99983 3.84366 0.270839 -0.034983 0.26573 1.21859 -7.49765 3.19698 
1.11131 -7.30809 2.67048 0.836623 -6.4646 1.91643 0.449413 -5.12078 1.12697 
0.236589 -3.79658 0.744133 0.188699 -2.77318 0.761884 0.220195 -0.722671 0.76838 
0.192887 -1.99087 0.937534 0.226534 -1.36309 1.05159 0.310355 0.319633 0.0656811 
2.01875 -6.11771 4.39135 1.33635 -7.31853 3.3854 1.13102 -7.45974 2.88221 
0.992659 -7.02482 2.3054 0.65395 -5.92094 1.53163 0.201067 -0.409031 0.535248 
0.330756 -4.51625 0.91385 0.226314 -3.32776 0.750637 0.193229 -2.40292 0.835728 
0.218995 -1.0807 0.982394 0.202596 -1.69875 1.00771 0.217365 0.238635 0.0673951 
0.206431 -1.42525 1.03446 0.191997 -2.06461 0.90648 0.228253 -2.90362 0.794148 
0.283061 -3.98129 0.831323 1.15981 -7.43706 3.02103 1.05076 -7.33168 2.56302 
0.485506 -5.32115 1.21059 0.841686 -6.62471 1.92745 1.64555 -6.78683 3.79249 
0.198136 -0.784166 0.827414 0.186003 -0.0985582 0.297333 0.187855 -1.76183 0.964396 
0.200925 -1.15251 0.993535 0.220667 -2.50793 0.842817 0.279017 -3.50334 0.833414 
0.37698 -4.73646 1.01473 0.169844 -0.481733 0.613894 0.670953 -6.11992 1.56474 
0.949131 -7.10351 2.22483 1.05095 -7.42634 2.7067 1.33262 -7.17552 3.2619 
2.01255 -5.84644 4.44717 0.150794 0.152866 0.107385 0.183609 -1.48823 0.993876 
0.201327 -2.14534 0.886439 0.183569 -0.869778 0.876024 0.277888 -3.05305 0.861724 
0.341018 -4.20361 0.951515 0.518661 -5.55536 1.27766 0.815961 -6.76135 1.87491 
0.966803 -7.3258 2.40097 1.11448 -7.35413 2.85012 0.140865 -0.197412 0.390252 
1.65701 -6.52795 3.80227 0.178305 -1.82509 0.921693 0.177395 -1.22685 0.973975 
0.258498 -2.62565 0.885156 0.341482 -3.70544 0.961987 0.430307 -4.9914 1.12708 
0.666269 -6.31308 1.55062 0.156404 -0.584334 0.700226 0.874239 -7.14009 2.0846 
0.972872 -7.37879 2.51391 1.3359 -6.97374 3.19776 1.95017 -5.51724 4.45668 
0.109585 0.052442 0.190101 0.159626 -1.54556 0.940522 0.221145 -2.23308 0.897446 
0.164762 -0.962695 0.892277 0.335668 -3.22213 0.982572 0.410116 -4.45414 1.10704 
0.541247 -5.79474 1.31917 0.759411 -6.8582 1.76716 0.870921 -7.29956 2.20542 
1.08401 -7.22493 2.71353 0.124556 -0.308436 0.496875 1.63338 -6.19146 3.84827 
0.177135 -1.88872 0.90115 0.146887 -1.29169 0.927779 0.304818 -2.75874 0.983731 
0.414454 -3.92966 1.14303 0.48315 -5.25575 1.23846 0.143692 -0.692291 0.754702 
0.635635 -6.47244 1.48983 0.904416 -7.30271 2.3296 0.776953 -7.14323 1.90456 
1.33473 -6.68526 3.21191 0.0923666 -0.0627356 0.300118 1.85156 -5.12766 4.3535 
0.138953 -1.5952 0.895719 0.251113 -2.33208 0.963303 0.135596 -1.04362 0.86992 
0.402324 -3.41102 1.16744 0.483856 -4.71279 1.28261 0.545312 -6.00719 1.32742 
0.675853 -6.90578 1.61664 1.06392 -7.02049 2.63939 0.77589 -7.2543 2.00583 
0.116176 -0.427419 0.582699 1.57767 -5.74088 3.86879 0.186853 -1.95758 0.929145 
0.112889 -1.34066 0.873289 0.359768 -2.9113 1.15369 0.493492 -4.16151 1.36087 
0.522642 -5.49415 1.32822 0.12059 -0.791745 0.765042 0.579297 -6.57751 1.38966 
0.669551 -7.11884 1.70633 0.861726 -7.15449 2.20967 1.30955 -6.31613 3.2642 
0.0864987 -0.188891 0.40483 0.126866 -1.64147 0.887633 0.291174 -2.44917 1.10363 
1.73264 -4.71532 4.10621 0.0967705 -1.10471 0.822709 0.475598 -3.61111 1.40346 
0.546079 -4.94459 1.44394 0.525411 -6.16141 1.29938 0.574714 -6.90737 1.44141 
0.695955 -7.16895 1.83619 1.08659 -6.61216 2.75322 0.100036 -0.543569 0.62558 
1.41125 -5.52868 3.60686 0.0818435 -1.37666 0.838613 0.208758 -2.0406 1.02967 
0.422147 -3.07979 1.38752 0.56276 -4.36931 1.57171 0.0839645 -0.872099 0.737709 
0.535648 -5.66777 1.37669 0.502573 -6.61651 1.26292 0.566298 -7.06465 1.51645 
0.849517 -6.88502 2.20442 0.0761815 -0.31752 0.473685 0.127569 -1.69477 0.944527 
1.11537 -6.07855 2.96576 0.0538098 -1.14487 0.776102 0.340254 -2.58591 1.31803 
0.542235 -3.79368 1.64358 1.61695 -4.37254 3.78414 0.577118 -5.10702 1.55187 
0.639407 -7.00535 1.73122 0.48145 -6.23267 1.23915 0.469023 -6.86663 1.26232 
0.0687471 -0.644739 0.622823 0.0608347 -1.40924 0.855203 1.33563 -5.07027 3.44399 
0.242217 -2.14421 1.21043 0.840808 -6.49927 2.28284 0.481785 -3.24015 1.64067 
0.0371911 -0.927387 0.69355 0.599611 -4.5092 1.72031 0.476736 -6.95827 1.35704 
0.515533 -5.74552 1.37437 0.415338 -6.58692 1.12642 0.0508161 -0.437038 0.494395 
1.04301 -5.6502 2.9112 0.1424 -1.76526 1.08201 0.0151239 -1.17022 0.762457 
0.390473 -2.72393 1.56899 0.593256 -6.73653 1.68543 0.579797 -3.91331 1.82224 
0.370096 -6.77635 1.09843 0.565203 -5.16879 1.58274 0.419247 -6.20977 1.1572 
1.48912 -4.0601 3.39011 0.0227058 -0.721071 0.589698 0.7779 -6.08894 2.27462 
0.0547117 -1.45106 0.94633 0.280809 -2.25706 1.44396 1.2456 -4.66266 3.16564 
0.4008 -6.76454 1.23839 0.51806 -3.34568 1.84283 -0.0117303 -0.95845 0.66313 
0.589078 -4.54824 1.77098 0.328629 -6.49057 0.996313 0.465353 -5.71516 1.32492 
0.00794309 -0.535412 0.476471 0.959968 -5.21157 2.75899 -0.0110696 -1.19286 0.81071 
0.533673 -6.36285 1.65561 0.166862 -1.8499 1.28458 0.423309 -2.8172 1.78633 
0.571403 -3.93578 1.89315 0.283602 -6.6129 0.962884 0.513677 -5.1193 1.53929 
0.348101 -6.09858 1.06403 1.34972 -3.77564 2.95364 -0.0314738 -0.767849 0.555562 
0.698253 -5.62359 2.21714 0.0627284 -1.50757 1.10922 0.307132 -2.33441 1.66311 
-0.0527242 -0.973178 0.677102 0.333183 -6.44474 1.1644 1.15077 -4.27972 2.81225 
0.513566 -3.36017 1.93918 0.533819 -4.48007 1.72534 0.248216 -6.32539 0.878205 
0.397744 -5.58362 1.24295 0.882651 -4.76314 2.5222 -0.0472884 -0.605085 0.44936 
0.46448 -5.87887 1.63813 -0.0202713 -1.22626 0.93128 0.182971 -1.90362 1.48771 
0.422458 -2.83012 1.9096 0.517062 -3.85344 1.85348 0.210005 -6.33488 0.865165 
0.438992 -4.97257 1.44417 0.277504 -5.9116 0.965127 1.19958 -3.50604 2.49244 
-0.0827238 -0.789843 0.559031 0.613232 -5.12567 2.07357 -0.0769972 -0.992043 0.756156 
0.30786 -2.34711 1.80687 0.0646346 -1.52756 1.27651 0.464798 -3.27064 1.91826 
0.27637 -5.94563 1.16089 0.4517 -4.32225 1.613 0.327735 -5.37687 1.14166 
0.174621 -6.0716 0.76807 1.04821 -3.90561 2.3936 0.81025 -4.34676 2.21489 
-0.102538 -0.649699 0.461223 0.403038 -5.24136 1.62602 0.18232 -1.91114 1.63684 
0.381186 -2.74146 1.91717 0.432486 -3.68631 1.73311 -0.0358333 -1.1998 1.03781 
0.36181 -4.75638 1.32327 0.143734 -5.90361 0.802443 0.208988 -5.65967 0.851214 
1.04015 -3.23864 2.01697 -0.108521 -0.876798 0.711511 0.59372 -4.45343 1.87228 
0.273091 -2.26395 1.84337 0.383868 -3.09687 1.80488 0.0590013 -1.5185 1.40756 
0.3657 -4.10505 1.46815 0.21182 -5.33875 1.15013 0.2628 -5.12007 1.02085 
0.100056 -5.70202 0.65322 0.879111 -3.72843 1.9509 -0.135262 -0.684669 0.547212 
-0.0521073 -1.15099 1.10348 0.308859 -2.57028 1.82625 0.349684 -4.63003 1.47339 
0.150745 -1.82857 1.68748 0.340428 -3.4663 1.57064 0.294404 -4.50228 1.18551 
0.136503 -5.33616 0.707295 0.0740417 -5.32816 0.755526 0.897786 -3.00513 1.60421 
-0.114076 -0.89827 0.846263 0.597476 -3.93041 1.58546 0.212451 -2.10892 1.78607 
0.0248991 -1.41599 1.43269 0.290798 -2.87278 1.63639 0.292435 -3.85849 1.31008 
0.197693 -4.82579 0.864437 0.151642 -4.6934 1.06656 0.0179858 -5.21341 0.527092 
0.787137 -3.39976 1.54513 0.104904 -1.70455 1.66593 0.221345 -2.34917 1.66745 
-0.142894 -0.738684 0.722234 0.362894 -3.99901 1.22388 0.260329 -3.22596 1.39295 
0.235397 -4.227 1.02259 0.051069 -4.93326 0.523163 -0.0769362 -1.05755 1.13136 
-0.00372252 -4.72704 0.661361 0.751293 -2.76697 1.18976 0.620066 -3.34662 1.19031 
0.0027097 -1.35217 1.46228 0.138571 -1.91305 1.65676 0.205501 -2.63397 1.44321 
0.234178 -3.59878 1.13719 0.124015 -4.48888 0.663821 0.108986 -4.13937 0.847087 
-0.0745394 -4.65574 0.37826 0.0522548 -1.56186 1.58545 -0.133056 -0.796173 0.90145 
0.136126 -2.1139 1.46841 0.344179 -3.53963 0.865844 0.198606 -2.97743 1.20631 
0.175062 -3.93172 0.822561 -0.0451507 -4.46656 0.310453 -0.0770995 -1.05636 1.2336 
-0.0746273 -4.16446 0.478483 0.629281 -2.57108 0.851031 -0.0264539 -1.2706 1.44706 
0.533321 -3.01845 0.794625 0.0611044 -1.69382 1.46674 0.138073 -2.38695 1.2419 
0.0387076 -4.10728 0.424711 -0.167951 -4.1311 0.180519 0.182101 -3.33191 0.936533 
0.101357 -3.61069 0.524516 -0.0114201 -1.37073 1.42637 -0.124899 -0.834375 1.05243 
0.0628969 -1.85721 1.25261 -0.139315 -3.71068 0.186971 -0.144287 -3.98231 0.0747963 
0.105071 -3.61655 0.580051 0.149996 -2.72821 1.00296 -0.0950667 -1.00283 1.2601 
0.359087 -3.00868 0.461733 0.501794 -2.37534 0.502364 -0.0733378 -1.12046 1.33861 
-0.0156528 -1.4193 1.2426 0.0541478 -3.24606 0.159373 -0.256134 -3.66944 -0.086739 
-0.0575498 -3.69563 0.153136 0.0886561 -2.14384 1.03328 0.126844 -3.06093 0.701473 
-0.0873319 -1.08479 1.20462 -0.139244 -0.798902 1.09884 0.394912 -2.2257 0.213891 
0.259668 -2.75594 0.0998421 -0.207568 -3.32267 -0.170383 0.00900814 -1.60276 1.0358 
-0.246754 -3.51294 -0.201126 0.0255164 -3.28171 0.307603 0.106041 -2.48893 0.776472 
-0.130861 -0.886427 1.1735 -0.0313799 -2.94283 -0.233982 -0.0754387 -1.14042 1.02203 
-0.156325 -3.28351 -0.134553 -0.334947 -3.23019 -0.422689 0.0532896 -1.93448 0.812318 
0.0658468 -2.77419 0.445265 -0.146415 -0.8093 1.01263 0.282288 -2.09019 -0.0847867 
0.142858 -2.53107 -0.259699 -0.17276 -0.674034 1.00495 -0.0198815 -1.41579 0.819272 
-0.0527615 -2.93734 0.038185 -0.341668 -3.09036 -0.51221 -0.236955 -2.88837 -0.570784 
0.0595494 -2.23897 0.530973 -0.0989428 -0.974116 0.819205 -0.23873 -2.90045 -0.404823 
-0.385535 -2.82765 -0.788169 0.00275177 -2.47673 0.185746 -0.0331679 -2.47558 -0.60905 
0.0201629 -1.71573 0.580221 -0.158992 -0.680213 0.801569 -0.193999 -0.540183 0.837364 
0.15811 -1.97457 -0.403028 -0.407572 -2.72934 -0.807016 -0.12528 -2.60079 -0.219119 
-0.0432581 -1.2134 0.602112 0.011106 -1.97305 0.282748 -0.217005 -2.44046 -0.918851 
-0.116384 -0.778151 0.603417 -0.313571 -2.5388 -0.679362 -0.426662 -2.50522 -1.09213 
0.0325394 -1.8878 -0.705806 -0.0565278 -2.17862 -0.0583306 -0.181129 -0.472381 0.62037 
-0.0125103 -1.47989 0.356199 -0.192557 -2.28381 -0.464526 -0.460101 -2.36219 -1.11749 
-0.296824 -2.18756 -1.19404 -0.0679034 -0.968946 0.410583 -0.0342557 -1.70134 0.0514679 
-0.0967927 -1.81902 -0.991271 -0.133691 -0.556559 0.426793 -0.379797 -2.18407 -0.957495 
-0.437973 -2.10571 -1.38335 -0.113379 -1.90938 -0.291269 -0.0419503 -1.19056 0.206895 
-0.253842 -1.97643 -0.695539 -0.255955 -1.74064 -1.29866 -0.482566 -1.96733 -1.39735 
-0.083775 -0.743681 0.240672 -0.0527532 -1.33909 -0.0168678 -0.0943307 -1.5318 -0.252898 
-0.425885 -1.8295 -1.20843 -0.179706 -1.63356 -0.547639 -0.392158 -1.65305 -1.50277 
-0.0611786 -0.956745 0.0413945 -0.311224 -1.67204 -0.918831 -0.455995 -1.54575 -1.50716 
-0.0793269 -1.15629 -0.195288 -0.399914 -1.44081 -1.24617 -0.14131 -1.29047 -0.463328 
-0.255783 -1.36545 -0.814158 
