# vtk DataFile Version 3.0
vtk output
ASCII
DATASET POLYDATA
POINTS 724 float
9.87325 -10.0772 10.7046 10.0356 -11.2106 10.5648 9.73326 -8.78248 10.9851 
10.213 -12.1956 10.5382 9.64238 -7.56654 11.3561 9.89982 -9.26468 11.2346 
10.4107 -13.071 10.6071 9.59116 -6.38782 11.8103 10.0521 -10.2471 11.1447 
9.82091 -8.19824 11.5886 10.2085 -11.1141 11.1184 10.3614 -11.9522 11.0855 
10.6034 -13.7726 10.7511 9.75537 -7.14498 11.9584 9.57809 -5.26186 12.3289 
10.0204 -9.12755 11.7013 10.5287 -12.5126 11.2419 10.1972 -10.1171 11.6775 
9.72055 -6.09899 12.3959 9.93761 -7.96817 12.107 10.7999 -14.3628 10.9607 
9.60176 -4.1394 12.9219 10.3854 -11.0982 11.6696 10.7078 -13.145 11.3767 
9.70378 -5.01798 12.8714 9.8776 -6.83275 12.5382 10.1237 -8.86618 12.1996 
10.5866 -11.8477 11.8218 10.9985 -14.8521 11.2299 10.3003 -9.81067 12.205 
9.64858 -3.21141 13.462 9.83877 -5.66571 13.0126 10.0467 -7.65549 12.6492 
10.8951 -13.7002 11.5714 9.77711 -4.33441 13.4278 10.4816 -10.6361 12.2713 
10.7892 -12.5488 11.9858 10.22 -8.52701 12.7249 9.98914 -6.45093 13.111 
9.72216 -2.271 14.0579 11.2031 -15.261 11.5635 11.0908 -14.2442 11.7939 
10.6775 -11.3701 12.4197 9.80247 -3.33898 13.925 10.3913 -9.38732 12.7744 
9.93462 -5.18289 13.5629 10.1505 -7.27944 13.201 11.0031 -13.2491 12.163 
10.574 -10.1815 12.8721 9.92693 -4.09005 14.0277 10.0931 -6.03075 13.6654 
10.3168 -8.12517 13.2786 10.8838 -12.115 12.5677 11.3807 -15.5461 11.8964 
9.86153 -2.362 14.4833 9.82263 -1.33599 14.7071 11.241 -14.2532 12.2089 
10.4883 -8.95974 13.3553 10.7721 -10.9489 13.0086 10.0673 -4.86785 14.1385 
10.2556 -6.87676 13.757 11.1053 -12.978 12.6561 9.9592 -3.00358 14.5673 
11.4371 -14.7968 12.436 10.6729 -9.76149 13.4637 10.4223 -7.72166 13.8431 
10.2164 -5.67881 14.2322 10.9836 -11.7741 13.1198 10.0699 -3.71126 14.6446 
9.9713 -1.6619 15.0803 9.93035 -0.527261 15.319 11.5786 -15.7923 12.3105 
11.2981 -13.6104 12.7968 10.5958 -8.55287 13.9363 10.8726 -10.5744 13.5816 
10.3742 -6.50806 14.3217 10.1981 -4.48312 14.722 10.0756 -2.39528 15.1635 
11.1904 -12.493 13.2614 11.4902 -14.1648 12.9824 10.0376 0.187371 15.8959 
10.0887 -1.07538 15.6504 11.6464 -15.0477 12.8768 10.7811 -9.37265 14.0447 
10.5395 -7.34279 14.4138 10.3414 -5.29642 14.8012 10.1899 -3.21126 15.2192 
11.079 -11.3468 13.7149 11.7764 -15.9673 12.7667 11.4011 -13.1726 13.4163 
10.201 -1.95915 15.7124 10.7131 -8.17124 14.5139 10.3207 -4.05177 15.2812 
10.4969 -6.13217 14.8866 10.9783 -10.1704 14.1705 11.2955 -12.1105 13.854 
10.1724 -0.135936 16.2201 11.6325 -14.0644 13.464 10.1669 0.970463 16.5673 
10.3195 -2.83055 15.7617 11.8198 -15.0259 13.376 10.4661 -4.90656 15.3551 
10.6621 -6.96884 14.9825 10.8977 -8.98316 14.629 10.2533 -0.897073 16.2324 
11.1888 -10.9761 14.297 11.9576 -16.0669 13.2181 11.532 -13.0024 13.9263 
10.4525 -3.69727 15.8214 10.35 -1.71403 16.2595 10.6229 -5.75853 15.4446 
10.8371 -7.7941 15.0902 11.0956 -9.79967 14.7491 11.4172 -11.8607 14.3858 
11.769 -13.94 13.9428 10.3107 0.349396 16.8148 10.2904 1.65907 17.1876 
10.4636 -2.55243 16.2979 11.9729 -14.8973 13.8826 10.5985 -4.55245 15.902 
10.7899 -6.59979 15.5477 11.0227 -8.61642 15.2047 10.396 -0.564778 16.7868 
12.1229 -16.1095 13.6531 11.3083 -10.6608 14.8483 11.6517 -12.7672 14.438 
10.4192 1.27229 17.4556 10.5942 -3.37727 16.3658 10.4933 -1.43699 16.7904 
10.7558 -5.40099 15.9996 10.9671 -7.43249 15.6593 11.2205 -9.45789 15.3113 
11.8787 -13.6456 14.4592 11.5302 -11.5323 14.9261 10.476 0.471941 17.3697 
12.1589 -15.2478 14.1913 10.4387 2.42899 17.9057 10.6091 -2.23607 16.8439 
10.7381 -4.20941 16.4525 10.924 -6.24308 16.1084 11.1538 -8.26734 15.769 
11.7511 -12.3717 14.986 10.5499 -0.403761 17.3109 11.4283 -10.3035 15.4064 
12.0784 -14.2847 14.572 12.3093 -16.1055 14.17 10.5649 1.79052 18.0743 
10.7388 -3.03678 16.9171 10.8946 -5.04774 16.5547 10.6481 -1.15642 17.3464 
11.1025 -7.08098 16.2204 11.9592 -13.085 15.07 11.3489 -9.09858 15.8739 
11.6429 -11.1317 15.4915 10.6163 0.697751 17.8723 12.3083 -15.0359 14.7288 
10.5832 3.13752 18.5771 10.8815 -3.85449 17.0063 10.7613 -1.90887 17.4029 
11.063 -5.88746 16.6652 12.1672 -13.8004 15.143 11.2888 -7.91009 16.3308 
11.5528 -9.91699 15.9738 11.8576 -11.899 15.5834 10.7037 -0.0682212 17.8803 
12.4795 -16.0562 14.6672 10.7005 1.67557 18.446 10.7182 2.73831 18.8466 
10.8885 -2.68596 17.4747 11.037 -4.6862 17.1086 11.2415 -6.72146 16.7782 
10.8025 -0.796788 17.9156 11.4825 -8.72533 16.4389 12.0736 -12.6524 15.6654 
11.7645 -10.7066 16.0749 12.3549 -14.3135 15.3087 10.7811 0.982395 18.4571 
12.5103 -15.1536 15.2195 10.7482 3.90668 19.3086 11.0292 -3.49083 17.5619 
11.2052 -5.52215 17.2193 10.9147 -1.53918 17.9665 11.4279 -7.54197 16.8913 
11.6851 -9.52246 16.5476 11.9828 -11.4873 16.1688 12.2816 -13.2871 15.793 
10.865 0.295879 18.4674 12.661 -15.9574 15.2259 10.8462 2.19718 19.0483 
11.184 -4.31702 17.6622 11.0407 -2.31076 18.0336 11.3839 -6.35182 17.334 
11.6219 -8.34712 17.005 10.8836 3.37101 19.5308 10.9609 -0.409337 18.4899 
12.4969 -14.0999 15.8316 11.898 -10.3145 16.6512 12.2003 -12.2094 16.2787 
10.931 1.4856 19.0571 12.6718 -14.9466 15.7905 10.9111 4.62412 19.9897 
11.1814 -3.11544 18.1166 11.3518 -5.14997 17.7723 11.0713 -1.14716 18.5296 
11.5712 -7.16897 17.4506 11.8257 -9.14605 17.1161 12.1172 -11.0831 16.7566 
11.017 0.770043 19.0499 12.424 -13.0184 16.3413 10.9956 2.7275 19.6482 
12.8277 -15.8223 15.7718 11.3363 -3.94138 18.215 11.1975 -1.92644 18.5881 
11.5306 -5.97874 17.8882 12.6379 -13.866 16.3627 11.767 -7.97811 17.5664 
11.115 0.0374325 19.0554 11.0441 3.99258 20.1706 12.0395 -9.93681 17.2241 
12.3428 -11.9025 16.8316 11.0798 1.98881 19.6389 12.8231 -14.7472 16.3342 
11.0738 5.30453 20.6286 11.3394 -2.73533 18.6683 11.5041 -4.77579 18.3242 
11.2279 -0.737258 19.0794 11.7188 -6.80088 18.0059 11.1679 1.23976 19.6127 
11.9722 -8.7828 17.679 12.5658 -12.756 16.8752 12.2621 -10.7595 17.3096 
11.1459 3.26741 20.2303 12.9824 -15.6536 16.3112 11.3576 -1.53458 19.1342 
11.4953 -3.56507 18.7654 11.2699 0.447571 19.5942 11.6827 -5.60957 18.4395 
12.7779 -13.6356 16.8856 11.9163 -7.61876 18.1219 11.2286 2.47592 20.1947 
12.1878 -9.60703 17.7755 11.2051 4.59516 20.7749 12.487 -11.6143 17.368 
12.9658 -14.5343 16.8666 11.3891 -0.345686 19.6167 11.5029 -2.35349 19.2144 
11.3197 1.61812 20.1285 11.663 -4.40512 18.8733 11.2365 5.9535 21.23 
11.8713 -6.44 18.5557 12.1232 -8.4474 18.2269 12.7068 -12.4953 17.3993 
11.2982 3.77351 20.7778 12.4101 -10.4559 17.8486 13.1264 -15.4532 16.8463 
11.3777 2.77322 20.6632 11.4305 0.819405 20.1183 11.5238 -1.15198 19.6737 
11.661 -3.19103 19.3115 12.9151 -13.3909 17.4068 11.841 -5.24637 18.9863 
12.0694 -7.27512 18.666 12.3391 -9.29251 18.3145 12.632 -11.3305 17.8965 
11.3684 5.1272 21.335 13.1016 -14.2962 17.3973 11.442 3.90039 21.1661 
11.4805 1.95578 20.6331 11.5563 0.0295689 20.1484 11.6727 -1.97825 19.7562 
11.8292 -4.03898 19.4186 12.0285 -6.08868 19.0974 12.847 -12.2234 17.9224 
11.3984 6.5623 21.7924 12.2766 -8.12095 18.7639 12.5597 -10.1567 18.3801 
13.2608 -15.2227 17.3781 11.5127 4.92386 21.6233 11.5422 3.0788 21.1474 
11.5984 1.18223 20.6409 11.6957 -0.777191 20.2102 13.0498 -13.1248 17.9316 
11.8331 -2.82266 19.8548 12.0056 -4.8888 19.528 12.2256 -6.93594 19.2011 
12.7778 -11.0397 18.4241 12.4918 -8.97926 18.8457 11.5403 6.03 21.9894 
13.2327 -14.0298 17.9323 11.6512 2.31559 21.1459 11.6186 4.18631 21.6536 
11.7289 0.402504 20.6788 11.8476 -1.60759 20.2956 12.0012 -3.6768 19.9608 
12.1905 -5.7388 19.6335 12.9872 -11.9359 18.4501 12.4316 -7.79214 19.2931 
12.7102 -9.85173 18.909 11.585 7.19966 22.3975 13.3866 -14.9655 17.9062 
11.681 5.37706 22.1293 11.7721 1.55824 21.1643 11.7205 3.44714 21.6567 
11.8718 -0.403062 20.7448 13.1835 -12.836 18.4649 12.0095 -2.4566 20.396 
12.1754 -4.53099 20.0666 12.3846 -6.59251 19.7305 12.9239 -10.738 18.9537 
12.6452 -8.65855 19.3718 11.7264 6.54015 22.5478 13.361 -13.7338 18.4782 
11.7924 4.63223 22.1588 11.8298 2.70516 21.6629 11.9056 0.782319 21.2072 
12.026 -1.23677 20.8336 12.1771 -3.31325 20.5012 12.3566 -5.38407 20.1665 
13.1275 -11.6329 18.9844 12.5878 -7.454 19.8179 12.8603 -9.53573 19.4358 
13.5038 -14.6861 18.4279 11.7746 7.76826 22.9711 11.8555 5.82508 22.6322 
11.8986 3.88293 22.1634 11.9513 1.94973 21.6851 13.3171 -12.527 19.0092 
12.0513 -0.024558 21.2778 12.1882 -2.08837 20.9357 12.3487 -4.16811 20.6042 
12.5465 -6.23925 20.2582 13.0692 -10.4228 19.4856 12.7977 -8.32417 19.8947 
11.9113 7.03232 23.0831 13.4882 -13.4095 19.0409 11.9683 5.07348 22.6526 
12.0103 3.12824 22.1719 12.0863 1.17076 21.7326 12.2071 -0.861438 21.3703 
12.3546 -2.94472 21.0412 12.5261 -5.02007 20.6998 13.2667 -11.3146 19.5248 
12.7448 -7.10157 20.3409 13.0077 -9.20207 19.961 13.6113 -14.392 18.9347 
11.9714 8.28485 23.5319 12.0329 6.27499 23.1315 12.0783 4.31728 22.6573 
12.1331 2.35981 22.1982 12.2341 0.360101 21.8078 13.4494 -12.2014 19.5638 
12.3688 -1.71401 21.4752 12.524 -3.79672 21.1423 12.7104 -5.87284 20.7861 
13.2102 -10.0857 20.0177 12.9481 -7.97018 20.416 13.7072 -14.0939 19.4137 
13.1507 -8.84373 20.4852 12.9015 -6.73045 20.8647 12.6972 -4.64414 21.2348 
12.5332 -2.56796 21.5818 12.1452 5.50923 23.139 12.1933 3.55344 22.6698 
12.3905 -0.47882 21.9054 12.2699 1.57012 22.2511 12.1011 7.5035 23.6112 
13.4 -10.9667 20.0686 13.6151 -13.0646 19.6234 13.0959 -7.59206 20.9383 
13.3449 -9.71791 20.55 12.8753 -5.4901 21.3172 12.6995 -3.4151 21.6824 
12.5506 -1.33035 22.0141 13.5739 -11.8306 20.1268 12.4188 0.753152 22.3329 
12.3187 2.77505 22.7029 12.2586 4.74574 23.1419 12.2151 6.71788 23.6304 
12.1758 8.76336 24.0838 13.7987 -13.7716 19.8992 13.2886 -8.45634 21.0101 
13.0576 -6.33838 21.3921 13.5255 -10.5797 20.6162 12.8685 -4.25508 21.7731 
12.7121 -2.1811 22.1229 12.5747 -0.0857592 22.4369 12.4564 1.97583 22.7636 
12.3784 3.97692 23.1599 12.3253 5.93798 23.6237 13.7312 -12.641 20.2234 
12.299 7.96078 24.1388 13.2412 -7.18891 21.4644 13.4728 -9.31523 21.0839 
13.0401 -5.09057 21.8532 12.8748 -3.02194 22.2247 12.7326 -0.936319 22.5505 
[...]
POINT_DATA 724
VECTORS velocity double
0.984789 -1.11656 1.2386 1.11165 -0.874593 1.32413 0.873994 -1.50144 1.10104 
1.23457 -0.674889 1.33961 0.809223 -1.99128 0.981217 0.889725 -1.47689 1.10208 
1.34033 -0.44379 1.27755 0.794814 -2.57727 0.923086 0.978613 -1.255 1.19947 
0.808945 -1.8785 0.960362 1.07834 -1.11208 1.26125 1.19275 -0.949245 1.28575 
1.41276 -0.193686 1.15697 0.771808 -2.34935 0.866214 0.84742 -3.21987 0.947987 
0.828999 -1.6657 0.993659 1.25922 -0.869962 1.23787 0.897914 -1.47209 1.07898 
0.784569 -2.89657 0.842757 0.748492 -2.10391 0.833867 1.45819 0.0663309 0.996489 
0.975193 -3.86715 1.04341 1.00264 -1.33938 1.14604 1.33696 -0.685718 1.14714 
0.864807 -3.49418 0.905632 0.72922 -2.62213 0.754069 0.743684 -1.86985 0.853915 
1.07949 -1.28449 1.12666 1.47912 0.311233 0.815455 0.782046 -1.68781 0.92536 
1.13213 -4.376 1.16447 0.781581 -3.21985 0.781577 0.680999 -2.32672 0.70475 
1.39387 -0.464462 1.00851 0.941594 -3.89489 0.944629 0.835982 -1.61265 0.972819 
1.16232 -1.16617 1.05909 0.653839 -2.06785 0.713216 0.693664 -2.86698 0.668245 
1.33212 -4.94561 1.32578 1.47886 0.531528 0.623654 1.43778 -0.171301 0.830388 
0.892988 -1.59024 0.975599 1.10694 -4.4014 1.09025 0.656467 -1.89163 0.764307 
0.795782 -3.48135 0.759979 0.622079 -2.53031 0.60247 1.25245 -0.9189 0.934616 
0.67838 -1.81664 0.814005 0.941525 -4.00368 0.896753 0.6706 -3.06357 0.617193 
0.574311 -2.24966 0.597947 0.977861 -1.51231 0.944033 1.46428 0.692836 0.462533 
1.30944 -4.9784 1.27196 1.56073 -5.6822 1.52834 1.40042 -0.251275 0.718658 
0.552352 -2.05198 0.64155 0.723493 -1.79702 0.847372 0.778642 -3.57183 0.713515 
0.576015 -2.6941 0.537556 1.11928 -1.22016 0.858189 1.13378 -4.55389 1.07759 
1.43386 0.14879 0.522965 0.554526 -1.94829 0.704852 0.512161 -2.3916 0.526711 
0.638747 -3.15359 0.57422 0.816789 -1.73786 0.856546 0.94215 -4.08125 0.86836 
1.46273 -5.5238 1.41667 1.76212 -6.46684 1.75102 1.43647 0.840152 0.299835 
1.21808 -0.864713 0.727822 0.475924 -2.16629 0.572542 0.590976 -1.91016 0.769834 
0.532955 -2.78619 0.49921 0.757108 -3.60787 0.677107 1.22084 -4.88176 1.15707 
0.920758 -1.58043 0.813066 1.29246 -0.451162 0.572307 1.92564 -7.19592 2.0169 
1.58269 -6.06563 1.56445 1.41146 0.328668 0.364259 0.46708 -2.02288 0.652569 
0.461814 -2.48179 0.494106 0.602171 -3.1801 0.539176 0.960734 -4.20206 0.880973 
0.660304 -1.88111 0.809128 1.40015 0.955652 0.166085 1.0358 -1.2669 0.719579 
1.25264 -5.12073 1.20626 0.420652 -2.23973 0.549076 0.731795 -3.61537 0.651444 
0.488586 -2.81966 0.473592 0.489169 -1.95406 0.739727 0.76417 -1.76647 0.805592 
1.81461 -7.00968 1.91839 1.21223 -0.580302 0.535706 2.08333 -7.9195 2.4382 
0.936941 -4.24703 0.872871 1.3601 0.306344 0.297789 0.554751 -3.14998 0.502786 
0.415777 -2.52556 0.481593 0.40622 -2.06255 0.642591 1.5308 -6.15752 1.56886 
0.549511 -1.9152 0.81006 1.36118 1.03477 0.078004 0.932506 -1.39878 0.723712 
0.675736 -3.55733 0.613864 1.19015 -5.14362 1.18683 0.434991 -2.79716 0.446103 
0.375743 -2.28197 0.54949 0.421411 -1.94864 0.749579 0.665076 -1.8104 0.832556 
1.129 -0.693372 0.541436 1.87677 -7.44952 2.1671 2.20881 -8.4116 2.95231 
0.861231 -4.19678 0.836894 1.29137 0.207203 0.29634 0.485923 -3.06527 0.458945 
0.364825 -2.52446 0.470527 0.361834 -2.07823 0.656176 1.50602 -6.3416 1.651 
1.3206 1.08479 0.0308264 0.476115 -1.88024 0.841148 0.828422 -1.49463 0.769237 
2.07477 -8.18255 2.79166 0.592267 -3.46502 0.571885 1.11635 -5.16278 1.18698 
0.365528 -2.72682 0.410754 0.33097 -2.29257 0.554203 0.374318 -1.91949 0.776281 
1.00933 -0.90232 0.615161 0.573623 -1.79099 0.881361 1.7755 -7.37027 2.23072 
1.28348 0.542059 0.200353 2.33718 -8.74353 3.6586 0.774924 -4.16382 0.818262 
0.398259 -2.95687 0.414408 0.302486 -2.48283 0.451136 0.322475 -2.0778 0.672488 
0.70426 -1.571 0.847309 1.38274 -6.2127 1.64567 0.416496 -1.81136 0.877131 
1.11863 -0.31204 0.460796 1.26636 1.11497 0.0148152 2.12298 -8.38992 3.25552 
0.49763 -3.38644 0.542497 0.280743 -2.63131 0.370927 1.01005 -5.11107 1.18765 
0.279415 -2.27483 0.550438 0.830791 -1.19485 0.75429 0.333918 -1.88698 0.797848 
0.488934 -1.7158 0.929576 1.69643 -7.30268 2.34954 1.19601 0.410463 0.261985 
2.43619 -8.82845 4.34844 0.300627 -2.85631 0.379097 0.672155 -4.11628 0.809741 
0.227682 -2.41603 0.422659 0.95905 -0.643735 0.602208 0.279764 -2.06706 0.677468 
0.364802 -1.73525 0.901768 0.581219 -1.55655 0.91917 1.29743 -6.19135 1.74235 
1.20462 1.11636 0.0281964 1.94977 -8.032 3.15425 2.2727 -8.65344 4.12132 
0.396027 -3.32157 0.52726 0.187058 -2.53639 0.334885 0.217981 -2.23718 0.533862 
0.916089 -5.08966 1.23678 0.293422 -1.85922 0.805219 0.690835 -1.26126 0.840554 
0.414384 -1.61005 0.959278 1.02068 -0.155111 0.469299 1.58336 -7.12832 2.48782 
1.12527 0.564952 0.240426 2.51365 -8.71602 5.03692 0.201642 -2.77826 0.359209 
0.144244 -2.34348 0.39105 0.574997 -4.08775 0.828813 0.230076 -2.04684 0.66824 
0.317158 -1.67056 0.909417 0.482796 -1.46082 0.954433 0.780661 -0.855138 0.719845 
1.20002 -6.09735 1.86266 1.11931 1.08756 0.0579025 1.95304 -8.05681 3.58106 
0.0939552 -2.46106 0.311547 0.300985 -3.28297 0.532276 0.148315 -2.19043 0.509127 
0.249957 -1.83606 0.798921 2.29579 -8.56423 4.65805 0.823585 -5.03632 1.31305 
0.900965 -0.223541 0.515451 0.351935 -1.50683 0.967613 0.557338 -1.22904 0.884663 
1.55742 -7.14924 2.81373 1.00108 0.467208 0.286699 2.55049 -8.4735 5.5371 
0.112587 -2.73229 0.358349 0.0607974 -2.28355 0.366375 0.485698 -4.05481 0.869611 
0.174109 -2.01989 0.649777 0.272844 -1.62265 0.905076 0.395775 -1.34462 0.961039 
1.15164 -6.10031 2.08145 0.656552 -0.837641 0.737971 1.93606 -7.99286 3.96593 
1.01596 1.02974 0.0823074 0.0134789 -2.41851 0.307017 0.217564 -3.25744 0.553448 
0.0775199 -2.14937 0.485827 0.76603 -0.270915 0.529817 0.204526 -1.81515 0.785591 
0.760195 -5.02341 1.44218 2.29746 -8.37109 5.05922 0.29789 -1.4262 0.963438 
0.456446 -1.12642 0.878076 1.52031 -7.12062 3.11731 0.863126 0.386088 0.296961 
2.53522 -8.14891 5.80491 0.0411022 -2.71633 0.375002 -0.00997518 -2.25199 0.357581 
0.412992 -4.02788 0.931867 0.117324 -1.99495 0.63027 1.09869 -6.07571 2.29309 
0.231773 -1.59183 0.895885 0.534903 -0.784877 0.719643 0.328535 -1.23818 0.952108 
1.90894 -7.86398 4.2729 0.892848 0.946164 0.0870199 0.150906 -3.24534 0.588253 
-0.0440473 -2.41366 0.32283 0.688989 -4.96379 1.55121 0.0173025 -2.12945 0.473421 
0.626825 -0.286017 0.505935 0.160138 -1.79987 0.770804 1.46857 -7.04198 3.34969 
0.255118 -1.37073 0.958709 2.26739 -8.10097 5.27949 0.368161 -1.02197 0.855837 
0.713224 0.309406 0.273907 0.344249 -3.9821 0.990402 -0.00876597 -2.72899 0.405679 
1.00751 -5.9531 2.39309 -0.0556633 -2.25757 0.369386 2.45286 -7.76688 5.8249 
0.0682891 -1.98438 0.616295 0.196194 -1.57441 0.888052 0.421423 -0.717702 0.682293 
1.85899 -7.66197 4.43478 0.275312 -1.15989 0.94532 0.752413 0.842302 0.0664869 
1.34238 -6.79194 3.32974 0.602152 -4.86711 1.61265 0.0973765 -3.23993 0.627252 
-0.0736558 -2.44741 0.356546 0.488743 -0.286941 0.460404 -0.0200716 -2.14108 0.477635 
0.122035 -1.7953 0.758412 0.221811 -1.34221 0.957916 0.29562 -0.936416 0.838174 
2.17783 -7.7897 5.27122 0.558066 0.234471 0.228355 1.67273 -7.30082 4.18835 
0.889655 -5.77533 2.39427 0.276999 -3.93563 1.03305 -0.0385932 -2.76874 0.445449 
-0.0693496 -2.30289 0.401759 0.036693 -1.99679 0.612303 0.322604 -0.655557 0.64884 
2.31365 -7.37495 5.65162 0.166436 -1.57281 0.880197 0.236344 -1.11568 0.948915 
0.601852 0.726057 0.0252644 1.90082 -7.4614 4.76257 1.19762 -6.50821 3.21441 
0.507883 -4.77288 1.62696 0.0557611 -3.25415 0.664891 0.361885 -0.282911 0.414585 
-0.0770801 -2.51946 0.404304 -0.026527 -2.18708 0.500464 0.0947725 -1.80766 0.748242 
0.241917 -0.882181 0.838835 0.196418 -1.33887 0.958773 2.09458 -7.44259 5.23594 
0.4091 0.16408 0.177953 0.771279 -5.60805 2.33611 1.48506 -6.94045 3.91446 
0.213303 -3.91585 1.05398 -0.0510456 -2.84186 0.491162 -0.0521565 -2.3871 0.451987 
0.0294158 -2.03564 0.620119 0.2457 -0.612107 0.638224 0.142931 -1.58739 0.868797 
0.210006 -1.10521 0.961427 2.1286 -6.98644 5.35411 0.452675 0.606952 -0.0233697 
1.74005 -7.19713 4.5145 0.416054 -4.70915 1.59693 1.05717 -6.24936 3.0403 
0.0250748 -3.30405 0.696053 0.257255 -0.281831 0.3903 -0.0600351 -2.63166 0.463007 
-0.00140883 -2.26604 0.541464 0.0827579 -1.83877 0.740923 0.207475 -0.863966 0.860058 
0.176366 -1.35615 0.954409 1.88829 -7.16844 4.89932 0.279287 0.0992719 0.144612 
1.34042 -6.7094 3.68033 0.658514 -5.46358 2.216 0.154521 -3.93774 1.0459 
-0.0494568 -2.95432 0.539789 -0.0119068 -2.50923 0.517262 0.0492971 -2.09953 0.642004 
0.194725 -0.596667 0.659134 0.126699 -1.61584 0.851739 0.192164 -1.12275 0.973277 
0.318471 0.493165 -0.0611884 1.96181 -6.70634 5.08362 1.54276 -6.99212 4.17776 
0.933153 -6.06913 2.83372 0.329007 -4.67612 1.51433 0.183019 -0.292344 0.402898 
0.00282851 -3.39786 0.71293 -0.0293904 -2.78378 0.530702 0.0487774 -2.37527 0.600293 
0.0895532 -1.88675 0.739997 0.188209 -0.87927 0.892241 0.159048 -1.38742 0.938176 
1.69049 -6.9761 4.57965 0.180346 0.0377355 0.148294 1.16465 -6.54508 3.36151 
0.555004 -5.36326 2.04348 0.0993374 -4.00078 0.998474 -0.0375086 -3.10737 0.586426 
0.041044 -2.66692 0.596398 0.093707 -2.18522 0.681527 0.167551 -0.612764 0.706182 
0.119768 -1.65419 0.831265 0.177084 -1.15925 0.972371 0.211246 0.390042 -0.0719268 
1.8258 -6.51306 4.88737 1.33638 -6.86446 3.83082 0.787232 -5.94461 2.54739 
0.247739 -4.67649 1.37972 -0.0148482 -3.53629 0.705464 0.140648 -0.321853 0.45394 
0.00952008 -2.97157 0.605314 0.112923 -2.51208 0.677743 0.116236 -1.94834 0.752224 
0.17649 -0.920912 0.919327 0.143314 -1.42542 0.908453 0.136736 0.299305 -0.04904 
0.159779 -1.20413 0.950573 0.124697 -1.69867 0.815308 0.154624 -2.29008 0.743303 
0.0983776 -2.85505 0.689234 0.968558 -6.46371 3.00903 0.440859 -5.29988 1.8014 
-0.0198191 -3.29838 0.622787 0.0465295 -4.10167 0.907261 1.51721 -6.83791 4.32288 
0.15646 -0.660558 0.764583 0.118461 -0.0249865 0.197453 0.130522 -1.46374 0.871607 
0.163619 -0.977223 0.925157 0.160072 -2.02154 0.786759 0.180109 -2.67312 0.77553 
0.0526088 -3.18757 0.681468 0.124484 -0.382606 0.537449 -0.0327228 -3.71601 0.664932 
0.163583 -4.70308 1.18828 0.618538 -5.89802 2.21391 1.14126 -6.78807 3.52522 
1.70903 -6.34911 4.73801 0.088785 0.211749 0.00827926 0.138247 -1.24713 0.908999 
0.143331 -1.74719 0.816669 0.150033 -0.731317 0.811396 0.221381 -2.41266 0.831989 
0.155613 -3.06502 0.79345 -0.00319272 -3.52318 0.637449 -0.00784715 -4.23051 0.770543 
0.309557 -5.29515 1.50926 0.769374 -6.44527 2.6726 0.0923619 -0.114911 0.301055 
1.37276 -6.70517 4.13612 0.12425 -1.49839 0.841958 0.143 -1.03435 0.901348 
0.214486 -2.10646 0.852942 0.2435 -2.85282 0.89351 0.0944474 -3.42347 0.748019 
-0.0557015 -3.92833 0.586613 0.122036 -0.470767 0.626165 0.0710305 -4.7658 0.952607 
0.436325 -5.9233 1.87417 0.974565 -6.71583 3.29559 1.59084 -6.15851 4.56707 
0.063877 0.117487 0.10132 0.114607 -1.28075 0.859971 0.174958 -1.80063 0.84993 
0.136804 -0.808603 0.82555 0.285004 -2.55155 0.949846 0.209904 -3.28646 0.900472 
0.00442918 -3.77323 0.619332 -0.0659316 -4.38391 0.597861 0.162738 -5.35648 1.19777 
0.588243 -6.44521 2.39799 0.0886334 -0.212468 0.411642 1.24995 -6.52345 3.98607 
0.128356 -1.52977 0.838295 0.112987 -1.07926 0.853437 0.271134 -2.20482 0.956833 
0.300575 -3.04249 1.02543 0.126644 -3.67048 0.789383 0.11715 -0.564575 0.682457 
-0.0860718 -4.15618 0.473487 0.258465 -5.98457 1.57236 -0.0303671 -4.87871 0.698303 
0.845502 -6.59437 3.14938 0.0581952 0.0150078 0.214302 1.45434 -5.91609 4.30441 
0.0943177 -1.30244 0.824513 0.215381 -1.86316 0.926599 0.11022 -0.87268 0.800864 
0.34058 -2.70203 1.09211 0.255449 -3.50734 0.993027 -0.00235018 -4.03206 0.563445 
-0.128314 -4.55126 0.404885 0.438778 -6.40263 2.20408 0.014857 -5.4825 0.91725 
0.0888929 -0.317454 0.500405 1.13762 -6.24932 3.81064 0.144322 -1.56298 0.878123 
0.0776557 -1.10475 0.801113 0.322793 -2.3164 1.09619 0.348654 -3.2285 1.15456 
0.139913 -3.9137 0.790943 0.0989502 -0.650043 0.693695 -0.12179 -4.37688 0.33689 
-0.137272 -5.02659 0.452324 0.118082 -6.05458 1.39239 0.742306 -6.3908 3.03206 
0.0600315 -0.096047 0.319698 0.083268 -1.31648 0.825507 0.25796 -1.93852 1.04911 
1.29276 -5.62286 3.90633 0.0709548 -0.914146 0.75214 0.385836 -2.85244 1.24287 
0.282297 -3.7112 1.04909 -0.0223146 -4.2725 0.474839 -0.19284 -4.71971 0.210699 
-0.116972 -5.60539 0.706157 0.383978 -6.28236 2.23867 0.0788076 -0.421008 0.546553 
0.892206 -6.02975 3.33452 0.0444972 -1.11317 0.770846 0.169617 -1.6053 0.97035 
0.36468 -2.43306 1.25607 0.3804 -3.39119 1.25509 0.0638877 -0.714693 0.665636 
0.130467 -4.12855 0.747219 -0.157155 -4.56655 0.193124 -0.240143 -5.17181 0.242572 
0.03258 -6.02815 1.34716 0.0552473 -0.211151 0.390575 0.0845316 -1.3322 0.879232 
0.411689 -6.04998 2.38447 0.0254432 -0.931175 0.705843 0.295469 -2.02338 1.2053 
0.416178 -2.98097 1.37473 1.13748 -5.33568 3.45214 0.281294 -3.87482 1.05112 
-0.219096 -5.64844 0.58203 -0.0470782 -4.4637 0.367509 -0.254764 -4.86556 0.0334707 
0.0506491 -0.509731 0.545479 0.0210142 -1.11328 0.786074 0.779798 -5.67854 3.01346 
0.197714 -1.65902 1.10855 -0.0172337 -5.86216 1.35267 0.392056 -2.5341 1.40793 
0.0158086 -0.751268 0.62036 0.384987 -3.50512 1.30048 -0.329122 -5.25175 0.0821145 
0.104165 -4.28518 0.665018 -0.186067 -4.70571 0.0573754 0.0333126 -0.319327 0.41346 
0.314743 -5.71433 2.16866 0.0957598 -1.35674 0.986767 -0.0168042 -0.929616 0.690895 
0.320446 -2.10011 1.36661 -0.297718 -5.54736 0.496893 0.422494 -3.05815 1.45617 
-0.308583 -4.95454 -0.115031 0.251728 -3.97364 0.994171 -0.0663173 -4.58261 0.256359 
0.977654 -5.02475 2.92636 0.00476454 -0.571437 0.512148 -0.101944 -5.55506 1.2055 
0.0105238 -1.11518 0.8567 0.218845 -1.7119 1.26675 0.650569 -5.30898 2.58132 
-0.399327 -5.21291 -0.0365223 0.397326 -2.58688 1.51654 -0.0359466 -0.760729 0.58852 
0.356046 -3.54682 1.27519 -0.206476 -4.77803 -0.0630617 0.0739823 -4.36204 0.557903 
-0.00857029 -0.405977 0.396237 0.217559 -5.33011 1.87216 -0.047791 -0.919797 0.725889 
-0.3671 -5.29837 0.390553 0.108242 -1.38529 1.12815 0.324035 -2.13501 1.49418 
0.39627 -3.05965 1.46393 -0.352235 -4.94993 -0.232828 0.205555 -3.99109 0.889329 
-0.0751844 -4.62038 0.147256 0.821189 -4.68913 2.3662 -0.0510011 -0.600547 0.47715 
-0.174328 -5.17065 1.02005 0.00903868 -1.12163 0.971234 0.220278 -1.73001 1.40255 
-0.0806827 -0.750789 0.594802 -0.452469 -5.03328 -0.126714 0.527711 -4.91125 2.08518 
0.3731 -2.56605 1.55401 0.299777 -3.50568 1.18259 -0.224381 -4.76693 -0.174003 
0.0539091 -4.35335 0.44104 0.138489 -4.91428 1.52287 -0.0642769 -0.460835 0.369197 
-0.419256 -4.93777 0.283731 -0.065251 -0.911124 0.810249 0.104856 -1.38358 1.25688 
0.300611 -2.10436 1.55642 0.338232 -2.97497 1.39428 -0.393639 -4.81848 -0.326374 
0.161752 -3.92988 0.756142 -0.0764649 -4.57549 0.0394938 0.670554 -4.32032 1.79565 
-0.104751 -0.601058 0.47517 -0.22975 -4.7339 0.784126 -0.111224 -0.737496 0.650046 
0.197704 -1.69561 1.48275 -0.00377434 -1.09495 1.07523 0.317443 -2.45794 1.51096 
-0.495115 -4.70624 -0.180714 0.234563 -3.3908 1.04229 0.0487927 -4.27077 0.320824 
-0.247383 -4.6471 -0.280937 0.417988 -4.47365 1.54021 0.0743655 -4.49428 1.12859 
-0.120799 -0.484744 0.37718 -0.437164 -4.47228 0.200898 0.0831534 -1.34487 1.34299 
0.247756 -1.99026 1.53905 0.261524 -2.81651 1.26159 -0.0904769 -0.854176 0.869181 
0.135612 -3.80748 0.613384 -0.435869 -4.53497 -0.405934 -0.0823257 -4.44718 -0.0777342 
0.525245 -3.91152 1.22836 -0.140861 -0.63527 0.595025 -0.188375 -4.23995 0.583028 
0.147444 -1.58575 1.48709 0.238978 -2.27502 1.39693 -0.0262024 -1.04606 1.14867 
0.181219 -3.22692 0.878335 -0.526926 -4.26346 -0.253631 0.0507804 -4.12707 0.194045 
-0.28561 -4.39839 -0.395048 0.223478 -4.08362 0.933651 -0.158154 -0.490436 0.443724 
-0.115716 -0.785993 0.89593 0.173165 -1.80605 1.44861 -0.431945 -3.99338 0.0308534 
0.0357282 -1.23944 1.35688 0.186722 -2.61308 1.08988 0.127955 -3.64565 0.466859 
-0.104608 -4.22721 -0.212274 -0.483849 -4.114 -0.494407 0.403875 -3.53061 0.75112 
-0.158281 -0.615758 0.68387 -0.131293 -3.83221 0.317858 0.0799355 -1.42004 1.42287 
-0.0711256 -0.934387 1.1418 0.154252 -2.04717 1.23203 0.151089 -3.04034 0.708424 
0.0434365 -3.92696 0.0484052 -0.543422 -3.76727 -0.376478 -0.337099 -4.02801 -0.521848 
0.166065 -3.66217 0.47257 -0.0196555 -1.10681 1.31942 0.0897058 -1.57882 1.3009 
-0.179402 -0.494 0.570201 -0.363196 -3.54503 -0.180903 0.131503 -2.39835 0.90158 
0.125809 -3.45344 0.312744 -0.150119 -3.91286 -0.371949 -0.149524 -0.682163 0.889231 
-0.527985 -3.63584 -0.625643 0.283348 -3.12982 0.28357 -0.0207913 -3.36695 -0.0142954 
-0.105579 -0.851017 1.14405 0.00681041 -1.22265 1.3023 0.0814201 -1.81113 1.03687 
0.139269 -2.84329 0.538123 0.0159094 -3.66602 -0.120224 -0.539858 -3.32274 -0.589689 
-0.400469 -3.57469 -0.679113 -0.075864 -0.959329 1.23813 -0.188752 -0.4951 0.692701 
0.0123442 -1.34144 1.1115 -0.326877 -3.15049 -0.510998 0.100339 -2.18623 0.711391 
0.112915 -3.22865 0.142568 -0.209527 -3.52629 -0.55054 -0.167511 -0.639641 0.947566 
-0.566779 -3.16403 -0.827751 0.184345 -2.79825 -0.0905358 -0.143547 -0.753502 1.11509 
-0.0498522 -2.96905 -0.405223 -0.0634326 -1.00629 1.12885 0.0305144 -1.57904 0.832786 
-0.0313279 -3.34816 -0.3101 -0.456838 -3.12372 -0.87293 0.130327 -2.63855 0.360187 
-0.509431 -2.91793 -0.884059 -0.133852 -0.775472 1.09439 -0.202418 -0.477761 0.790771 
-0.050752 -1.09446 0.901921 -0.588703 -2.77427 -1.09387 -0.270609 -3.11166 -0.747112 
0.0798118 -2.972 -0.0528485 0.0843869 -1.98441 0.521511 -0.197945 -0.560678 0.950907 
-0.230647 -2.73647 -0.830532 0.0801088 -2.46858 -0.46789 -0.188317 -0.609417 1.01465 
-0.129447 -0.754896 0.922497 -0.506294 -2.59614 -1.20575 -0.500632 -2.72002 -1.10661 
-0.095307 -2.99091 -0.525843 0.00117953 -1.36752 0.631499 0.110593 -2.42759 0.166076 
-0.196035 -0.534937 0.897513 -0.230003 -0.412189 0.811494 -0.00904015 -2.21891 -0.771983 
-0.277476 -2.43082 -1.15723 -0.605646 -2.44545 -1.39209 -0.0924885 -0.867485 0.694821 
-0.341102 -2.6955 -0.986087 0.0278579 -2.68769 -0.268383 0.0714889 -1.80354 0.327077 
-0.233012 -0.435964 0.87031 -0.529436 -2.30516 -1.52824 -0.177089 -0.521197 0.721082 
-0.168283 -2.62673 -0.760192 -0.55668 -2.34488 -1.41104 -0.010502 -1.20949 0.432087 
0.0754737 -2.19797 -0.035885 -0.239504 -0.334494 0.730686 -0.105182 -1.99477 -1.07495 
-0.34191 -2.1594 -1.45978 -0.258911 -0.293914 0.727796 -0.105289 -0.72089 0.49386 
-0.0306311 -2.39258 -0.478287 -0.417719 -2.32128 -1.262 -0.616562 -2.13193 -1.73549 
0.0507934 -1.62068 0.130876 -0.188647 -0.386303 0.534968 -0.231867 -2.29688 -0.976749 
-0.610275 -2.03763 -1.74149 0.0296099 -1.95936 -0.235517 -0.476011 -1.991 -1.76938 
-0.0199518 -1.06177 0.241402 -0.239732 -0.216537 0.542854 -0.267468 -0.174158 0.586172 
-0.213245 -1.80215 -1.37904 -0.469571 -2.03357 -1.49722 -0.0904809 -2.11015 -0.678613 
-0.110136 -0.585892 0.310412 0.0211532 -1.43053 -0.0568912 -0.586998 -1.86346 -1.98303 
-0.190378 -0.255666 0.349996 -0.298917 -1.99692 -1.19747 -0.62682 -1.82357 -1.94268 
-0.320696 -1.65744 -1.64244 -0.0194484 -1.72757 -0.420031 -0.245499 -0.0896016 0.394127 
-0.0329573 -0.911586 0.0735452 -0.152676 -1.85504 -0.872691 -0.526087 -1.7663 -1.73677 
-0.603561 -1.6782 -2.1012 -0.119137 -0.432153 0.168039 -0.0117158 -1.24582 -0.224374 
-0.424184 -1.54486 -1.86006 -0.191758 -0.130716 0.215956 -0.371539 -1.72041 -1.41769 
-0.631696 -1.58621 -2.10191 -0.0716234 -1.53628 -0.603427 -0.0558254 -0.701826 -0.0168346 
-0.217557 -1.6203 -1.05608 -0.53176 -1.43207 -2.04263 -0.570993 -1.51053 -1.92752 
-0.119669 -0.309726 0.0533838 -0.0352585 -0.937305 -0.226024 -0.0583793 -1.20322 -0.487947 
-0.439948 -1.46625 -1.60563 -0.141458 -1.35915 -0.822148 -0.58973 -1.33807 -2.08587 
-0.062494 -0.574258 -0.120381 -0.290524 -1.39841 -1.23636 -0.559392 -1.26415 -1.92712 
-0.0534374 -0.864551 -0.361119 -0.42624 -1.22271 -1.55834 -0.108994 -1.08115 -0.669905 
-0.23779 -1.18899 -1.06986 
