# vtk DataFile Version 3.0
vtk output
ASCII
DATASET POLYDATA
POINTS 724 float
10.4384 -10.8516 11.3774 10.6864 -11.8146 11.293 10.221 -9.82539 11.562 
10.9474 -12.662 11.2714 10.0747 -8.94557 11.8386 10.407 -10.2809 11.8247 
11.2168 -13.3882 11.2969 9.98604 -8.15775 12.2172 10.6234 -11.1019 11.7996 
10.2679 -9.49381 12.0843 10.8503 -11.8618 11.8097 11.0818 -12.5825 11.7844 
11.4573 -13.9415 11.369 10.1596 -8.76514 12.3747 9.95904 -7.4448 12.6888 
10.4978 -10.2624 12.2377 11.2999 -13.0785 11.9062 10.7313 -11.1024 12.2716 
10.0996 -8.08533 12.7558 10.3509 -9.41335 12.5396 11.6832 -14.3892 11.4909 
9.99654 -6.74004 13.261 10.9987 -11.9743 12.301 11.5334 -13.5876 11.9833 
10.0814 -7.39396 13.204 10.2522 -8.64034 12.8953 10.5553 -10.1334 12.6661 
11.2647 -12.6612 12.4356 11.8956 -14.7518 11.6665 10.7736 -10.931 12.7221 
10.0737 -6.14595 13.802 10.2014 -7.87845 13.3313 10.4197 -9.25438 13.0165 
11.7592 -14.0098 12.1 10.165 -6.98928 13.7484 11.0062 -11.6809 12.8177 
11.5326 -13.2597 12.552 10.6001 -9.92895 13.1204 10.3363 -8.43542 13.4216 
10.1878 -5.54936 14.4171 12.1017 -15.0513 11.9044 11.9812 -14.3959 12.2306 
11.2583 -12.3686 12.9638 10.2257 -6.3322 14.2583 10.7932 -10.6433 13.21 
10.2909 -7.59206 13.8617 10.4861 -9.02696 13.5162 11.808 -13.7939 12.6541 
11.0094 -11.359 13.3404 10.3144 -6.86301 14.3382 10.4212 -8.17039 13.9499 
10.6484 -9.65847 13.6159 11.5361 -13.0246 13.0833 12.2725 -15.2588 12.1586 
10.3284 -5.69997 14.8457 10.3324 -4.98674 15.1097 12.1199 -14.4431 12.5884 
10.8273 -10.3294 13.7291 11.2581 -12.0803 13.4936 10.4164 -7.38189 14.4268 
10.5622 -8.75401 14.0421 11.851 -13.6785 13.1115 10.3922 -6.14114 14.9055 
12.3282 -14.7926 12.7228 11.0331 -11.0311 13.8782 10.7159 -9.36413 14.148 
10.5303 -7.91592 14.507 11.5503 -12.8213 13.5989 10.4611 -6.5978 14.9556 
10.4721 -5.28259 15.4816 10.4826 -4.51669 15.788 12.4559 -15.4366 12.4939 
12.0988 -14.1045 13.1803 10.8871 -10.0081 14.2788 11.2778 -11.7854 14.0323 
10.6599 -8.47383 14.5985 10.5445 -7.08549 15.0094 10.5317 -5.74582 15.5265 
11.8344 -13.3999 13.7041 12.3243 -14.4495 13.2898 10.6327 -4.07816 16.4605 
10.6191 -4.93497 16.1031 12.5235 -14.9633 13.0894 11.085 -10.6983 14.437 
10.8062 -9.06169 14.7125 10.6461 -7.60495 15.0764 10.5912 -6.2333 15.5412 
11.5506 -12.497 14.181 12.6337 -15.5603 12.8858 12.1146 -13.8741 13.8018 
10.669 -5.45154 16.1021 10.9718 -9.68342 14.8543 10.667 -6.73572 15.5718 
10.7678 -8.15689 15.1675 11.3154 -11.419 14.6132 11.8493 -13.1378 14.3064 
10.7577 -4.33902 16.7848 12.4285 -14.4104 13.7564 10.8151 -3.51673 17.3054 
10.7216 -5.93461 16.0949 12.6699 -14.9592 13.5597 10.763 -7.2633 15.6321 
10.9101 -8.7365 15.2905 11.1622 -10.3398 15.0259 10.7826 -4.80088 16.7194 
11.5856 -12.1613 14.776 12.7923 -15.627 13.2961 12.1903 -13.7731 14.3226 
10.7919 -6.42278 16.1141 10.8109 -5.24313 16.6695 10.881 -7.81539 15.7311 
11.0737 -9.34172 15.4454 11.3852 -11.0497 15.2073 11.9071 -12.924 14.8663 
12.5216 -14.3393 14.2448 10.9224 -3.97557 17.495 10.9911 -2.91146 18.1683 
10.8543 -5.68137 16.6408 12.7867 -14.8813 14.0717 10.8833 -6.92868 16.1778 
11.0221 -8.39202 15.8673 11.2613 -9.98497 15.6218 10.9278 -4.52843 17.3334 
12.9332 -15.6502 13.7117 11.6512 -11.8318 15.3559 12.2478 -13.5946 14.8714 
11.0937 -3.20921 18.4042 10.9189 -6.11978 16.6607 10.9435 -4.99024 17.2308 
10.998 -7.46604 16.2863 11.1864 -8.99589 16.0318 11.4778 -10.6902 15.7946 
12.567 -14.1451 14.8095 11.9535 -12.599 15.4481 11.0756 -3.78381 18.1305 
12.9567 -15.0774 14.3429 11.217 -2.11694 19.2682 10.9844 -5.38831 17.2049 
11.0044 -6.5908 16.7247 11.1385 -8.03891 16.4328 11.3727 -9.63629 16.2068 
12.265 -13.2573 15.4784 11.0613 -4.31055 17.9065 11.7252 -11.4368 15.9432 
12.8084 -14.5038 14.8526 13.0865 -15.6353 14.2284 11.2773 -2.65671 19.2808 
11.0436 -5.79489 17.2193 11.1155 -7.10836 16.8354 11.0793 -4.69709 17.8294 
11.3038 -8.64551 16.6025 12.5444 -13.7372 15.5087 11.5804 -10.3105 16.3774 
11.9994 -12.1686 16.0513 11.2074 -3.48834 18.7402 13.0573 -14.9251 14.923 
11.4698 -1.34177 20.3496 11.124 -6.24035 17.2763 11.1152 -5.06554 17.7935 
11.2552 -7.67537 16.985 12.8112 -14.1695 15.5068 11.4888 -9.27552 16.7798 
11.8106 -11.0072 16.5296 12.2812 -12.7988 16.1292 11.2033 -3.94015 18.5731 
13.219 -15.5854 14.7427 11.382 -2.63227 19.6783 11.5494 -1.68966 20.5286 
11.169 -5.45234 17.7935 11.2315 -6.7415 17.3805 11.421 -8.27996 17.1586 
11.2173 -4.32355 18.4703 11.6907 -9.9212 16.9518 12.5654 -13.3516 16.1627 
12.0615 -11.6921 16.6558 13.017 -14.4532 15.6146 11.364 -3.09684 19.4696 
13.2116 -14.9639 15.4166 11.7625 -0.499811 21.502 11.2444 -5.8814 17.8365 
11.3702 -7.3007 17.5279 11.248 -4.69509 18.4068 11.6066 -8.90251 17.3399 
11.9096 -10.577 17.1097 12.3301 -12.3501 16.739 12.8182 -13.7596 16.2281 
11.3559 -3.51069 19.2879 13.3494 -15.4961 15.329 11.5783 -2.06762 20.5473 
11.3488 -6.37091 17.9289 11.2971 -5.08295 18.3837 11.5373 -7.90264 17.7039 
11.807 -9.53242 17.517 11.8011 -1.0196 21.5393 11.3638 -3.9016 19.1433 
13.087 -14.2642 16.1694 12.1474 -11.247 17.2362 12.5967 -12.9092 16.8052 
11.545 -2.55457 20.2924 13.3013 -14.7916 16.021 11.9872 0.311215 22.4685 
11.3698 -5.51231 18.4072 11.4866 -6.9236 18.0698 11.3887 -4.28949 19.041 
11.7255 -8.5246 17.8907 12.0218 -10.1758 17.676 12.398 -11.894 17.3295 
11.5243 -3.00523 20.0451 12.878 -13.4869 16.7901 11.7859 -1.52022 21.3958 
13.4556 -15.3805 15.8974 11.4728 -6.00006 18.4854 11.4342 -4.69617 18.9856 
11.6553 -7.52526 18.2451 13.1461 -14.0474 16.7116 11.9287 -9.15692 18.0719 
11.5232 -3.43389 19.8396 12.0103 -0.357716 22.4127 12.2503 -10.8291 17.8048 
12.6656 -12.5597 17.354 11.7383 -2.04082 21.0894 13.3731 -14.6186 16.5745 
12.1476 1.11905 23.238 11.5061 -5.13745 18.9879 11.6104 -6.55309 18.6166 
11.5409 -3.86508 19.6812 11.8474 -8.15448 18.4345 11.7062 -2.52476 20.7843 
12.1435 -9.79911 18.2337 12.9384 -13.2054 17.3146 12.4934 -11.5191 17.8744 
11.9811 -0.978386 22.1756 13.5399 -15.2414 16.4449 11.584 -4.2998 19.593 
11.6095 -5.63436 19.0507 11.6936 -3.00484 20.5064 11.7805 -7.16022 18.7869 
13.2011 -13.8227 17.2225 12.0552 -8.79675 18.6189 11.9286 -1.56837 21.8207 
12.3696 -10.4727 18.3522 12.171 0.315814 23.1347 12.7467 -12.2256 17.8759 
13.4301 -14.4317 17.0953 11.708 -3.4594 20.3133 11.6568 -4.76259 19.5744 
11.8833 -2.14228 21.4262 11.748 -6.19676 19.1702 12.2907 1.91428 23.8515 
11.9761 -7.79956 18.9741 12.2735 -9.45923 18.7776 13.0037 -12.9187 17.8174 
12.146 -0.452964 22.8352 12.6034 -11.1785 18.4071 13.605 -15.0797 16.9706 
12.082 -1.25413 22.3504 11.8735 -2.62806 21.1383 11.7499 -3.9151 20.2003 
11.7632 -5.27855 19.6222 13.2536 -13.5796 17.7181 11.9194 -6.81393 19.3314 
12.1882 -8.45981 19.1552 12.4987 -10.1472 18.8909 12.8405 -11.9039 18.392 
12.3013 0.934247 23.6996 13.4769 -14.2217 17.5997 12.2489 -0.26804 23.1697 
12.0587 -1.80834 22.0104 11.8891 -3.08646 20.9331 11.824 -4.40073 20.1631 
11.9043 -5.85788 19.73 12.1162 -7.46592 19.5095 13.0776 -12.6225 18.3199 
12.4486 2.68003 24.3663 12.4095 -9.13914 19.3109 12.7254 -10.8608 18.9398 
13.6553 -14.8947 17.4787 12.3667 0.759939 23.8157 12.2365 -0.928376 22.8507 
12.0599 -2.28468 21.7436 11.9306 -3.55501 20.8037 13.309 -13.3144 18.2153 
11.9343 -4.93986 20.198 12.0764 -6.48836 19.8787 12.3292 -8.13827 19.6826 
12.9481 -11.5906 18.9181 12.6348 -9.83832 19.4241 12.4691 1.98273 24.3548 
13.5207 -13.9847 18.1031 12.2355 -1.46639 22.5682 12.3807 0.0760431 23.592 
12.0793 -2.74495 21.5377 12.0056 -4.0612 20.7515 12.0795 -5.53858 20.2945 
12.2711 -7.14808 20.0435 13.1649 -12.3189 18.8389 12.5507 -8.82791 19.8342 
12.8569 -10.5562 19.4768 12.653 3.49778 24.9081 13.6966 -14.6866 17.9759 
12.4918 1.27896 24.2425 12.2466 -1.9521 22.3212 12.3933 -0.540393 23.3408 
12.1216 -3.22463 21.399 13.3748 -13.0287 18.7308 12.1197 -4.62285 20.7761 
12.252 -6.17922 20.4303 12.4799 -7.82446 20.2041 13.0686 -11.2854 19.4591 
12.7751 -9.53506 19.9501 12.6338 2.59174 24.814 13.5694 -13.7184 18.6238 
12.5122 0.567683 24.0303 12.4077 -1.09758 23.0911 12.2718 -2.42609 22.1201 
12.1974 -3.74924 21.3377 12.2695 -5.23761 20.8639 12.4419 -6.83996 20.5794 
13.2682 -12.0139 19.3823 12.6969 -8.51718 20.3487 12.9939 -10.2569 20.0128 
13.735 -14.4569 18.4694 12.865 4.22253 25.4472 12.6256 1.78776 24.6399 
12.5389 -0.085368 23.7984 12.4287 -1.61469 22.8615 13.457 -12.7293 19.2767 
12.3177 -2.9215 21.9814 12.3148 -4.32967 21.3568 12.4428 -5.88226 20.9885 
12.6419 -7.51179 20.7245 13.1983 -10.9855 20.0102 12.9167 -9.22763 20.4657 
12.8121 3.18503 25.2708 13.6315 -13.4255 19.1795 12.6391 1.05075 24.4234 
12.5678 -0.689676 23.5687 12.4616 -2.11736 22.6726 12.3965 -3.46393 21.9205 
12.469 -4.9539 21.4408 12.627 -6.53585 21.122 13.3853 -11.7107 19.9476 
12.8484 -8.19959 20.8569 13.1306 -9.95149 20.5405 13.7757 -14.211 18.9605 
13.0695 4.86855 26.006 12.7715 2.29832 25.035 12.6717 0.373579 24.2039 
12.6006 -1.25631 23.358 12.5148 -2.63705 22.5446 13.5566 -12.4243 19.8552 
12.5174 -4.05839 21.9431 12.6437 -5.59373 21.5576 12.8147 -7.19497 21.2488 
13.3292 -10.6787 20.5597 13.0575 -8.90607 20.9705 13.8216 -13.9585 19.4423 
13.2626 -9.62725 21.0549 13.005 -7.86855 21.3651 12.8219 -6.23151 21.6778 
12.6751 -4.68424 22.0303 12.7677 1.52269 24.7953 12.7132 -0.265506 23.9945 
12.5999 -3.19863 22.4975 12.6442 -1.80316 23.1878 12.9989 3.7633 25.7535 
13.5072 -11.3961 20.5242 13.7132 -13.1157 19.7809 13.1971 -8.56248 21.4694 
13.4542 -10.3502 21.0977 12.9961 -6.86932 21.7864 12.8497 -5.31074 22.145 
12.726 -3.80279 22.5363 13.6649 -12.0929 20.4623 12.7077 -2.35767 23.0823 
12.7601 -0.877577 23.8083 12.7974 0.824061 24.5757 12.9314 2.81223 25.4492 
13.2557 5.47675 26.5662 13.8777 -13.6839 19.9514 13.3879 -9.27448 21.5574 
13.1669 -7.52033 21.8834 13.6252 -11.0558 21.0986 13.022 -5.92473 22.2554 
12.8866 -4.42374 22.6371 12.8033 -2.94125 23.0635 12.8163 -1.47353 23.6649 
12.847 0.164322 24.3819 12.9051 1.99016 25.1695 13.8058 -12.7462 20.4333 
13.1861 4.34451 26.2692 13.3373 -8.1939 21.9732 13.5692 -9.98831 21.6205 
13.1832 -6.53396 22.348 13.0596 -5.03014 22.7578 12.9381 -3.55384 23.133 
[...]
POINT_DATA 724
VECTORS velocity double
1.04847 -1.78513 1.14795 1.24302 -1.3737 1.27182 0.860555 -2.39805 0.918212 
1.42691 -1.04898 1.27711 0.703388 -3.11336 0.668347 0.925265 -2.32334 0.976194 
1.5781 -0.727844 1.18532 0.558468 -3.89592 0.421912 1.08395 -1.9326 1.12592 
0.769716 -2.93987 0.755105 1.24994 -1.65424 1.20043 1.42442 -1.3639 1.20453 
1.67395 -0.440445 1.04978 0.629969 -3.61779 0.534026 0.427884 -4.68319 0.201644 
0.879202 -2.56908 0.890855 1.54194 -1.19587 1.12895 1.03371 -2.19127 1.02789 
0.499891 -4.34433 0.325065 0.704371 -3.25678 0.649564 1.73023 -0.186499 0.897141 
0.311627 -5.45456 0.017961 1.22903 -1.88463 1.09947 1.65551 -0.930306 1.01501 
0.381508 -5.08432 0.141241 0.555248 -4.01189 0.423638 0.796431 -2.85105 0.775423 
1.39201 -1.67999 1.05554 1.75683 0.0248093 0.743048 0.928699 -2.47532 0.902979 
0.226591 -6.03726 -0.0898584 0.423261 -4.81061 0.226673 0.618859 -3.58737 0.535453 
1.73179 -0.673879 0.876811 0.30762 -5.62204 0.0530431 1.07576 -2.23653 0.967033 
1.54137 -1.41175 0.953752 0.694923 -3.14733 0.655275 0.475826 -4.3887 0.330434 
0.145486 -6.5556 -0.142427 1.76162 0.197563 0.591229 1.77765 -0.401243 0.727056 
1.2308 -2.05072 0.955851 0.228554 -6.20473 -0.0341728 0.791994 -2.77919 0.768601 
0.359281 -5.21707 0.166438 0.530684 -3.91428 0.44046 1.6635 -1.06394 0.813709 
0.909169 -2.53297 0.846163 0.277288 -5.88551 0.0674762 0.409148 -4.72789 0.277308 
0.59058 -3.44556 0.554683 1.40332 -1.77884 0.885416 1.7517 0.31392 0.468988 
0.158627 -6.70102 -0.0673155 0.0751673 -6.99904 -0.123542 1.77193 -0.461512 0.633858 
0.663128 -3.04628 0.667111 1.06037 -2.3378 0.875362 0.323276 -5.46363 0.173058 
0.456847 -4.20842 0.389323 1.58524 -1.31979 0.761285 0.207784 -6.46846 0.0150635 
1.78079 -0.161072 0.495843 0.758393 -2.75585 0.765671 0.50532 -3.70037 0.505215 
0.367619 -4.96421 0.282063 1.26131 -2.049 0.844032 0.255778 -6.12411 0.106247 
0.126924 -7.02628 -0.0201082 0.0453081 -7.30578 -0.041705 1.72835 0.410173 0.348452 
1.67484 -0.945463 0.639665 0.56136 -3.25433 0.624615 0.902169 -2.53041 0.836757 
0.409281 -4.42479 0.396361 0.302977 -5.68001 0.20836 0.185925 -6.75072 0.0588378 
1.42568 -1.69222 0.761657 1.71637 -0.610412 0.524021 0.0616145 -7.46573 0.091768 
0.130059 -7.22391 0.0637157 1.75334 -0.0516796 0.387792 0.639411 -2.90314 0.744137 
0.44958 -3.88671 0.517589 0.347088 -5.15881 0.320387 0.24263 -6.35324 0.147739 
1.08001 -2.28771 0.852483 1.69371 0.474878 0.251809 1.54669 -1.28372 0.657596 
0.191937 -6.88521 0.128478 0.494552 -3.39616 0.64623 0.296091 -5.86906 0.250656 
0.386454 -4.59054 0.442012 0.755353 -2.64571 0.847986 1.26516 -1.93361 0.809324 
0.14165 -7.40959 0.17918 1.65808 -0.705934 0.510096 0.127949 -7.4266 0.34354 
0.248557 -6.46509 0.204748 1.70795 -0.0944159 0.351375 0.343258 -5.31255 0.368214 
0.422002 -4.01909 0.572282 0.555017 -2.99183 0.779314 0.181352 -7.19061 0.187073 
0.921719 -2.39716 0.909645 1.65232 0.510001 0.193014 1.45377 -1.3969 0.6972 
0.302803 -5.97015 0.299331 0.22161 -6.87151 0.218201 0.382035 -4.71358 0.498292 
0.458662 -3.48949 0.709405 0.648957 -2.67593 0.90534 1.13779 -2.01978 0.891784 
1.58493 -0.787384 0.543793 0.205878 -7.33113 0.368562 0.209461 -7.13696 0.717999 
0.268333 -6.47526 0.271305 1.64522 -0.180147 0.375286 0.349549 -5.40835 0.413252 
0.414068 -4.11124 0.637248 0.505691 -3.03118 0.849247 0.225316 -7.12199 0.315399 
1.60576 0.526206 0.17149 0.798751 -2.39806 0.993408 1.33757 -1.49748 0.791682 
0.269152 -7.08695 0.742121 0.315811 -6.00969 0.347879 0.251409 -6.81541 0.310906 
0.38656 -4.79662 0.544327 0.44368 -3.54494 0.779944 0.578121 -2.6561 0.979438 
1.47404 -0.936822 0.650624 0.990547 -2.06055 1.00249 0.264256 -7.09165 0.562823 
1.59757 0.0435619 0.335632 0.350749 -6.65944 1.3389 0.288008 -6.45302 0.340865 
0.357848 -5.46483 0.44814 0.414557 -4.17225 0.68659 0.478037 -3.04445 0.918335 
1.17209 -1.62115 0.932107 0.263096 -6.9405 0.455729 0.68867 -2.35175 1.07292 
1.51315 -0.517984 0.551174 1.54082 0.532399 0.188706 0.358847 -6.73958 1.17319 
0.326716 -6.01814 0.395108 0.390942 -4.85392 0.57107 0.278746 -6.69353 0.426909 
0.436685 -3.57989 0.830277 1.28746 -1.17933 0.836387 0.526255 -2.63 1.03916 
0.832909 -2.04804 1.09988 0.301573 -6.8424 0.784443 1.50752 -0.0413812 0.432586 
0.65218 -6.42081 2.00507 0.361966 -5.49652 0.475408 0.304332 -6.38009 0.427371 
0.413812 -4.2183 0.709807 1.36333 -0.726009 0.718547 0.458184 -3.05664 0.962808 
0.596856 -2.29373 1.12366 0.97446 -1.69006 1.0582 0.29299 -6.72774 0.656115 
1.4667 0.532205 0.239505 0.40235 -6.59438 1.29737 0.647947 -6.50772 1.91197 
0.333433 -5.98669 0.453494 0.389363 -4.89652 0.58277 0.428034 -3.61297 0.850942 
0.300046 -6.53697 0.58349 0.485627 -2.61611 1.07151 1.09662 -1.27177 0.964686 
0.689678 -1.99349 1.15187 1.36648 -0.385529 0.639842 0.353938 -6.56525 1.08148 
1.40644 0.0888933 0.467846 1.09405 -6.49862 2.68031 0.360288 -5.49928 0.507836 
0.406201 -4.26086 0.711869 0.316852 -6.2739 0.544537 0.438513 -3.07698 0.978666 
0.524211 -2.24989 1.14267 0.798106 -1.66797 1.11466 1.15894 -0.877731 0.863312 
0.331798 -6.48848 0.915051 1.36719 0.52868 0.313439 0.58071 -6.48822 1.7379 
0.380754 -4.92271 0.593305 0.337045 -5.92544 0.535539 0.413105 -3.65046 0.848489 
0.450375 -2.61867 1.07975 0.979306 -6.64807 2.43182 0.328955 -6.35275 0.790133 
1.22708 -0.404484 0.713398 0.578441 -1.92858 1.16175 0.89151 -1.30681 1.0278 
0.475551 -6.41854 1.46402 1.27077 0.0608544 0.547853 1.31626 -6.6028 3.10588 
0.356201 -5.47704 0.558172 0.390887 -4.29898 0.707131 0.336225 -6.14303 0.702254 
0.415001 -3.1064 0.974539 0.467705 -2.22615 1.14236 0.644459 -1.61751 1.12045 
0.416792 -6.33304 1.23067 0.9888 -0.876709 0.896124 0.825157 -6.61363 2.14172 
1.25188 0.519091 0.374419 0.368938 -4.93281 0.616262 0.347722 -5.84167 0.649339 
0.391192 -3.69167 0.836481 1.06841 -0.417744 0.742138 0.416984 -2.63443 1.07506 
0.390812 -6.21414 1.04167 1.1944 -6.84933 2.7892 0.492828 -1.8833 1.15313 
0.729063 -1.26462 1.02091 0.669825 -6.48279 1.8246 1.12204 0.0455069 0.577327 
1.32765 -6.5617 3.2716 0.358207 -5.4367 0.634026 0.371818 -4.3317 0.709467 
0.380527 -6.03319 0.89296 0.387192 -3.1441 0.962307 0.565925 -6.33932 1.54107 
0.421438 -2.2249 1.13669 0.820811 -0.860262 0.881533 0.532248 -1.55581 1.10213 
1.04265 -6.85083 2.46038 1.12088 0.498441 0.40285 0.378234 -5.76706 0.790686 
0.362025 -4.93179 0.659268 0.500608 -6.18179 1.28899 0.36607 -3.73651 0.827326 
0.90408 -0.421213 0.724442 0.383943 -2.66503 1.06661 0.880261 -6.70186 2.12244 
0.430404 -1.85697 1.14535 1.24532 -6.92838 2.95779 0.590447 -1.21424 0.991547 
0.963545 0.0267367 0.562146 0.463745 -5.99252 1.09261 0.376584 -5.40127 0.732452 
0.737221 -6.48443 1.78184 0.356486 -4.36278 0.726484 1.34127 -6.41985 3.30652 
0.358288 -3.19364 0.950341 0.382914 -2.2408 1.13426 0.664418 -0.836312 0.842107 
1.16315 -7.03841 2.64855 0.44721 -1.51372 1.08754 0.977077 0.464112 0.393399 
1.01758 -6.90562 2.272 0.64781 -6.27987 1.50842 0.439322 -5.74001 0.944737 
0.368848 -4.93676 0.720347 0.740145 -0.425204 0.679025 0.344837 -3.79042 0.827209 
0.353068 -2.71088 1.05868 0.383145 -1.8578 1.14726 0.477866 -1.17306 0.96521 
1.21825 -6.90942 2.98036 0.79959 -0.000796047 0.515842 1.18302 -7.13142 2.63742 
0.902101 -6.70795 1.96599 0.583843 -6.06267 1.28295 0.418214 -5.40113 0.84275 
0.353011 -4.40519 0.757302 0.33394 -3.25873 0.941949 0.525911 -0.814926 0.80159 
1.47269 -6.19874 3.33363 0.350372 -2.27959 1.13416 0.384702 -1.50103 1.08917 
0.825198 0.416722 0.352501 1.18935 -7.04189 2.82694 1.12385 -7.10106 2.36748 
0.809335 -6.49049 1.69824 0.530635 -5.80177 1.09763 0.584221 -0.43248 0.625943 
0.393715 -4.97118 0.79144 0.334403 -3.86203 0.835715 0.327328 -2.77809 1.04917 
0.391983 -1.15464 0.959082 0.347021 -1.88789 1.15684 1.27035 -6.67623 3.03151 
0.636336 -0.0361577 0.455058 1.04804 -6.96625 2.10989 1.19532 -7.20465 2.61941 
0.724373 -6.24982 1.45756 0.482174 -5.47124 0.955071 0.365045 -4.47628 0.796159 
0.319415 -3.34649 0.935384 0.412034 -0.805397 0.780001 0.323606 -2.3431 1.12997 
0.340269 -1.52149 1.10709 1.72341 -5.88912 3.43935 0.671355 0.359398 0.293175 
1.17476 -6.99744 2.77759 0.961437 -6.76803 1.85827 1.19327 -7.25556 2.4186 
0.641512 -5.96988 1.24409 0.445568 -0.445541 0.585676 0.435207 -5.06223 0.866213 
0.338222 -3.9625 0.84921 0.309645 -2.86905 1.03429 0.33169 -1.16733 0.978746 
0.31872 -1.94532 1.16419 1.37955 -6.52828 3.01377 0.481835 -0.0781165 0.399158 
1.17914 -7.20655 2.58894 1.15694 -7.19997 2.20656 0.864473 -6.52252 1.61431 
0.561456 -5.63127 1.06778 0.391414 -4.59382 0.840107 0.317509 -3.46077 0.928713 
0.327865 -0.817928 0.790348 0.302716 -2.429 1.11459 0.308618 -1.5728 1.13008 
0.523512 0.295426 0.232132 1.95285 -5.62175 3.62928 1.19363 -6.92203 2.71898 
1.21156 -7.32831 2.42388 1.0867 -7.05191 1.98136 0.334369 -0.470663 0.577212 
0.757603 -6.22866 1.38499 0.488537 -5.22616 0.947419 0.355689 -4.09928 0.867809 
0.301651 -2.98238 1.01259 0.292151 -1.2129 1.01581 0.295224 -2.0245 1.15768 
1.53387 -6.33004 3.06391 0.347545 -0.128055 0.370182 1.15474 -7.16638 2.52659 
1.21567 -7.35913 2.25176 0.987904 -6.8291 1.74889 0.648468 -5.87642 1.18716 
0.428788 -4.76662 0.895878 0.327917 -3.60173 0.924622 0.273066 -0.860203 0.832096 
0.287901 -2.53286 1.08505 0.283548 -1.64806 1.14204 0.39201 0.22735 0.187538 
2.07756 -5.42872 3.84539 1.25389 -6.80391 2.68456 1.18819 -7.32868 2.38023 
1.17232 -7.28774 2.06107 0.867172 -6.53933 1.52093 0.25739 -0.516908 0.610353 
0.55099 -5.46209 1.0477 0.384448 -4.27417 0.901189 0.303461 -3.11462 0.988399 
0.265157 -1.28738 1.05203 0.274506 -2.11877 1.13068 0.287017 0.156351 0.173947 
0.259864 -1.73827 1.13056 0.279431 -2.65047 1.04576 0.348934 -3.76692 0.934946 
0.477048 -4.99309 0.981516 1.14461 -7.09731 2.45825 1.22059 -7.42619 2.2413 
0.738016 -6.181 1.32156 1.08386 -7.11742 1.85481 1.67791 -6.10794 3.1864 
0.240482 -0.93655 0.890874 0.246238 -0.190707 0.386986 0.256233 -2.22263 1.08552 
0.241691 -1.38095 1.06799 0.314421 -3.26252 0.974919 0.424606 -4.48379 0.97112 
0.62411 -5.75375 1.18427 0.212981 -0.600516 0.683383 0.961184 -6.85653 1.64857 
1.20929 -7.43847 2.08967 1.14674 -7.28678 2.30902 1.34487 -6.63387 2.69914 
2.08432 -5.22955 4.00374 0.206668 0.0748928 0.19902 0.235077 -1.83527 1.09307 
0.278012 -2.77867 1.01048 0.218113 -1.03944 0.940949 0.380774 -3.95319 0.983482 
0.541233 -5.26228 1.12202 0.826495 -6.50902 1.47428 1.14193 -7.34428 1.92274 
1.1833 -7.42097 2.18783 1.16001 -6.9928 2.40608 0.1854 -0.295629 0.468622 
1.76436 -5.87165 3.3543 0.241852 -2.33255 1.03496 0.215367 -1.482 1.05299 
0.335252 -3.4239 0.996771 0.482196 -4.72239 1.10829 0.710194 -6.07348 1.36872 
1.03106 -7.13836 1.75903 0.189432 -0.717383 0.767138 1.19563 -7.49737 2.06932 
1.10737 -7.21699 2.23028 1.44517 -6.40194 2.7842 2.01518 -4.92367 4.03786 
0.151851 -0.0279 0.270455 0.209963 -1.93383 1.0389 0.285351 -2.91614 1.00371 
0.194407 -1.15283 0.959614 0.429016 -4.1595 1.10447 0.628074 -5.55649 1.33768 
0.906439 -6.81895 1.63645 1.15486 -7.48408 1.94768 1.121 -7.37032 2.10838 
1.20351 -6.82948 2.39583 0.157633 -0.417724 0.569916 1.77303 -5.59023 3.50512 
0.234273 -2.44802 1.0025 0.184443 -1.58012 1.01008 0.370725 -3.6004 1.08968 
0.566167 -4.98239 1.33995 0.804585 -6.38551 1.59434 0.169819 -0.840917 0.820631 
1.06626 -7.34787 1.83947 1.08401 -7.11005 2.16448 1.1371 -7.47833 2.01047 
1.52416 -6.10442 2.94146 0.12392 -0.152013 0.374897 1.92703 -4.4929 3.94078 
0.188011 -2.03203 0.989307 0.305743 -3.06583 1.06114 0.163391 -1.2584 0.940433 
0.503265 -4.38615 1.33043 0.735493 -5.84892 1.62288 0.9656 -7.07038 1.78837 
1.1181 -7.52599 1.9284 1.26628 -6.58389 2.45296 1.0502 -7.27985 2.02354 
0.141323 -0.549715 0.652773 1.72597 -5.18605 3.56197 0.238022 -2.57233 1.02275 
0.151572 -1.66985 0.956562 0.430066 -3.79744 1.29044 0.676588 -5.24694 1.662 
0.890734 -6.64634 1.82876 0.142903 -0.958017 0.831484 1.05786 -7.45844 1.87971 
1.04807 -7.40486 1.92866 1.09615 -6.90303 2.15659 1.5447 -5.7705 3.09716 
0.110497 -0.29053 0.477025 0.174495 -2.13329 0.97692 0.347284 -3.23535 1.22244 
1.84384 -4.01066 3.75092 0.125429 -1.35061 0.896583 0.606305 -4.6258 1.66171 
0.842004 -6.09662 1.929 0.989093 -7.22511 1.90587 1.03684 -7.4818 1.87385 
0.994234 -7.13976 1.95914 1.37001 -6.12443 2.68949 0.120078 -0.679517 0.693783 
1.60955 -5.00514 3.38053 0.122368 -1.75466 0.921954 0.260196 -2.71419 1.13658 
0.518572 -4.01481 1.60709 0.790482 -5.47692 2.01295 0.105556 -1.06055 0.806586 
0.944103 -6.80903 2.02471 1.00218 -7.45746 1.87785 0.950095 -7.29077 1.84447 
1.15298 -6.55892 2.25433 0.0949842 -0.431785 0.543758 0.176476 -2.2475 1.04265 
1.42335 -5.61348 2.95056 0.0851885 -1.42996 0.85315 0.416908 -3.43004 1.50526 
0.717434 -4.84342 2.0327 1.76846 -3.62259 3.54024 0.91316 -6.2462 2.18035 
0.971853 -6.91371 1.94566 0.96506 -7.25244 1.9717 0.927077 -7.37366 1.80078 
0.0865671 -0.796641 0.69131 0.104507 -1.84411 0.945626 1.56435 -4.52046 3.26284 
0.308331 -2.88293 1.37117 1.20985 -6.12952 2.42759 0.62075 -4.2243 1.97985 
0.0605926 -1.14484 0.766269 0.867864 -5.61434 2.29434 0.864343 -7.12806 1.77754 
0.943824 -6.83481 2.14377 0.905039 -7.35072 1.84351 0.0667149 -0.564251 0.563556 
1.37642 -5.24238 2.94799 0.201721 -2.38645 1.2208 0.050552 -1.50321 0.846155 
0.505342 -3.62971 1.86362 0.976493 -6.59062 1.98939 0.795961 -4.9772 2.33178 
0.809192 -7.21336 1.72696 0.922102 -6.25834 2.32033 0.89 -7.13931 1.98309 
1.67884 -3.29549 3.29857 0.0409943 -0.894239 0.660984 1.19633 -5.75411 2.5144 
0.106608 -1.95203 1.06669 0.378799 -3.06705 1.69894 1.51813 -4.07209 3.08643 
0.802096 -6.88673 1.74045 0.698438 -4.36185 2.29272 0.0151348 -1.21286 0.741988 
0.879404 -5.6177 2.43788 0.781708 -7.15542 1.79093 0.881985 -6.70752 2.17438 
0.0233125 -0.678983 0.547181 1.3238 -4.83542 2.85284 0.0312921 -1.58368 0.916006 
0.975991 -6.19399 2.05802 0.251103 -2.54788 1.50344 0.579206 -3.77153 2.18533 
0.811504 -4.98324 2.48149 0.700609 -6.98474 1.66245 0.86304 -6.12099 2.34119 
0.772688 -6.9008 1.94891 1.5711 -3.025 3.02959 -0.0108259 -0.970142 0.632295 
1.15145 -5.35856 2.53205 0.133529 -2.08559 1.295 0.443862 -3.20616 2.01767 
-0.0205683 -1.27298 0.771143 0.765577 -6.52064 1.73982 1.46664 -3.6559 2.88217 
0.720516 -4.37973 2.45918 0.82213 -5.48177 2.44278 0.650926 -6.88487 1.72441 
0.768727 -6.4416 2.13341 1.28242 -4.37791 2.69876 -0.0306398 -0.772769 0.524548 
0.96118 -5.72839 2.13317 0.03636 -1.68853 1.08752 0.301194 -2.67063 1.79986 
0.608013 -3.80632 2.37604 0.760625 -4.85671 2.48184 0.618649 -6.6354 1.60832 
0.750821 -5.8538 2.27498 0.635795 -6.57706 1.88099 1.44592 -2.79164 2.73288 
-0.0577955 -1.03236 0.649545 1.09588 -4.92528 2.45575 -0.0347448 -1.35102 0.886526 
0.476569 -3.25696 2.23076 0.16255 -2.17245 1.54497 0.680406 -4.26798 2.47116 
0.764888 -5.96695 1.80005 0.713506 -5.22883 2.35336 0.630002 -6.0876 2.0469 
0.535501 -6.53825 1.63788 1.39856 -3.27017 2.64707 1.2471 -3.92987 2.51226 
-0.0824576 -0.856236 0.549748 0.938829 -5.15484 2.18536 0.332445 -2.72833 2.02146 
0.580632 -3.71369 2.41367 0.659867 -4.62229 2.38056 0.0388373 -1.71167 1.25832 
0.613569 -5.50214 2.16243 0.577925 -6.13115 1.57181 0.504196 -6.20825 1.77377 
1.30623 -2.5784 2.40898 -0.0670128 -1.21667 0.855443 1.09678 -4.20647 2.31328 
0.460547 -3.18386 2.29935 0.591814 -4.05234 2.37241 0.184881 -2.2169 1.74726 
0.581091 -4.89942 2.21831 0.757661 -5.37443 1.859 0.494217 -5.70282 1.92196 
0.45081 -6.08994 1.51952 1.28845 -3.1577 2.3789 -0.106194 -0.948706 0.670918 
0.038872 -1.6949 1.37585 0.507938 -3.52039 2.33328 0.91179 -4.58222 2.08982 
0.322002 -2.66394 2.10906 0.534961 -4.31737 2.23049 0.479451 -5.12348 2.01905 
0.392982 -5.80159 1.61146 0.567719 -5.51162 1.56351 1.1782 -2.40387 2.11228 
-0.0522474 -1.31305 1.05728 1.11296 -3.57814 2.13926 0.406209 -3.02027 2.25178 
0.167379 -2.1254 1.80851 0.477308 -3.76995 2.21558 0.452154 -4.5426 2.06055 
0.375216 -5.31668 1.74072 0.739305 -4.79059 1.83692 0.398666 -5.54461 1.38933 
1.20523 -2.84949 2.13276 0.287867 -2.5416 2.1018 0.407981 -3.26251 2.18158 
-0.0905966 -1.09775 0.921112 0.942963 -3.84952 1.91639 0.412076 -3.98631 2.06129 
0.36317 -4.7529 1.83215 0.303505 -5.34501 1.39448 0.030444 -1.62189 1.44947 
0.547796 -4.94788 1.53429 1.04611 -2.2357 1.8016 1.10492 -2.88845 1.90911 
0.163695 -2.08584 1.86688 0.327592 -2.80301 2.12501 0.360994 -3.46187 2.03604 
0.34115 -4.19094 1.87122 0.272601 -4.92311 1.49705 0.726095 -4.24141 1.68589 
0.363586 -4.98148 1.27207 0.238757 -2.39381 2.02522 -0.0487376 -1.25518 1.18144 
0.300884 -2.9777 1.99514 0.935367 -3.3101 1.69352 0.30604 -3.65476 1.86947 
0.262616 -4.39243 1.58852 0.230979 -4.85806 1.16429 0.0595688 -1.68494 1.60499 
0.522884 -4.44054 1.42499 0.937798 -2.10491 1.54039 0.147987 -2.02225 1.86509 
1.00997 -2.5961 1.63785 0.234671 -2.54942 1.94141 0.258943 -3.14528 1.83995 
0.18018 -4.51283 1.21213 0.318254 -4.51151 1.13697 0.246624 -3.85292 1.63278 
0.741029 -3.61944 1.46243 0.165936 -2.1807 1.86538 -0.00399136 -1.3866 1.40043 
0.201413 -2.6651 1.78926 0.485161 -4.00181 1.2133 0.162626 -4.39612 0.94295 
0.169397 -4.0348 1.29195 0.218234 -3.33469 1.6386 0.0632324 -1.67097 1.65608 
0.910262 -2.69496 1.42404 0.828944 -1.98314 1.26805 0.0998989 -1.86312 1.75386 
0.137343 -2.22666 1.72211 0.703971 -3.21791 1.21097 0.255578 -4.11112 0.934436 
0.0926086 -4.09857 0.911105 0.176825 -2.83751 1.61622 0.161076 -3.52647 1.34404 
0.0724996 -1.8424 1.63593 0.00667147 -1.4036 1.47491 0.742763 -1.89904 1.0422 
0.811808 -2.49757 1.15176 0.429263 -3.60932 0.938665 0.122341 -2.35468 1.56685 
0.092581 -3.97965 0.707993 0.0797473 -3.67579 0.967719 0.142702 -3.03195 1.36433 
0.0300696 -1.56752 1.56991 0.620761 -2.93491 0.91752 0.0585801 -1.89419 1.49528 
0.00948212 -3.7083 0.617398 0.204692 -3.69014 0.666551 0.111653 -2.56126 1.35838 
0.0803163 -3.19696 1.02705 -0.00156101 -1.49926 1.42295 0.657625 -1.83415 0.808375 
0.699716 -2.34582 0.859257 -0.0275919 -1.27933 1.37554 0.0675431 -2.10404 1.32716 
-0.00290183 -3.32093 0.654682 0.0265924 -3.60198 0.442983 0.410197 -3.0911 0.621065 
0.0724216 -2.7232 1.05623 0.0144956 -1.67528 1.28283 -0.066906 -3.35002 0.341541 
0.179668 -3.23448 0.357928 0.00457056 -2.86346 0.706278 0.569885 -2.41134 0.585662 
0.0536614 -2.27335 1.06785 -0.035244 -1.33557 1.21611 -0.0648487 -1.12858 1.20446 
0.56938 -1.79545 0.557267 -0.0390584 -3.24459 0.152778 -0.0778735 -2.9782 0.358918 
0.0214047 -1.83028 1.06101 0.00686299 -2.39918 0.73674 0.405508 -2.52765 0.305792 
-0.0239342 -1.40577 1.02896 -0.1368 -2.99866 0.0519004 0.117374 -2.87559 0.0447169 
0.480209 -1.78385 0.308079 -0.063023 -2.52941 0.401783 -0.0737194 -1.04935 0.998576 
0.00214519 -1.96565 0.771466 -0.144187 -2.65087 0.0757074 -0.0900222 -2.83344 -0.181151 
0.285664 -2.31897 -0.0124386 -0.0181994 -1.51258 0.803955 -0.0505801 -2.06415 0.429642 
0.380639 -1.79083 0.0519254 -0.0559669 -1.09972 0.794472 -0.193856 -2.62106 -0.263126 
0.0723851 -2.38853 -0.312251 -0.122711 -2.21884 0.11349 -0.0336469 -1.62284 0.551937 
-0.199675 -2.31868 -0.202288 0.231432 -1.80925 -0.277032 -0.11473 -2.33447 -0.534448 
-0.047883 -1.19963 0.558326 -0.0702475 -1.66974 0.287984 -0.118106 -1.80303 0.0597036 
-0.226604 -2.19474 -0.585069 -0.181559 -1.89052 -0.198685 0.0489844 -1.81901 -0.59742 
-0.0642721 -1.29928 0.302477 -0.240877 -1.96588 -0.486409 -0.139842 -1.78418 -0.825145 
-0.104226 -1.39693 0.0388196 -0.249328 -1.68353 -0.806907 -0.160903 -1.47979 -0.216647 
-0.229596 -1.563 -0.519227 
