# vtk DataFile Version 3.0
vtk output
ASCII
DATASET POLYDATA
POINTS 724 float
10.5549 -11.0649 11.501 10.8261 -11.978 11.4318 10.3146 -10.1103 11.6575 
11.1086 -12.7862 11.4112 10.1487 -9.311 11.9037 10.5089 -10.557 11.928 
11.3954 -13.4746 11.4266 10.0417 -8.60917 12.252 10.7447 -11.3314 11.9212 
10.3506 -9.84047 12.161 10.9915 -12.0568 11.9404 11.2434 -12.7421 11.9158 
11.6467 -13.9953 11.4837 10.2248 -9.18727 12.4245 9.99752 -7.9814 12.6965 
10.5948 -10.5665 12.3318 11.4752 -13.2176 12.0292 10.8476 -11.3611 12.3826 
10.1479 -8.58679 12.7799 10.4261 -9.79593 12.6047 11.8789 -14.4146 11.5889 
10.0187 -7.35891 13.246 11.1385 -12.1945 12.4207 11.7216 -13.6959 12.0937 
10.1136 -7.97492 13.2052 10.3083 -9.10651 12.9329 10.6429 -10.4698 12.7475 
11.4239 -12.8552 12.5505 12.0943 -14.754 11.7478 10.8782 -11.2224 12.8194 
10.0833 -6.82542 13.7741 10.2397 -8.43108 13.3444 10.485 -9.67423 13.069 
11.956 -14.0891 12.1952 10.1865 -7.62756 13.7392 11.1291 -11.9418 12.9231 
11.709 -13.4214 12.6556 10.6761 -10.2992 13.1886 10.3825 -8.94324 13.4487 
10.185 -6.2803 14.3838 12.301 -15.0349 11.9693 12.183 -14.4451 12.3097 
11.3999 -12.6049 13.0681 10.2351 -7.03023 14.2387 10.8822 -10.9701 13.2926 
10.3205 -8.18846 13.868 10.5407 -9.4834 13.5582 11.998 -13.9159 12.7423 
11.1135 -11.6548 13.4327 10.3314 -7.52892 14.3323 10.4589 -8.71517 13.9714 
10.7121 -10.0628 13.6729 11.6978 -13.2272 13.1797 12.4707 -15.23 12.2103 
10.327 -6.44613 14.8231 10.319 -5.75862 15.0803 12.3213 -14.4989 12.6574 
10.9014 -10.6875 13.8006 11.3808 -12.3499 13.5896 10.4409 -8.00424 14.4352 
10.6077 -9.24299 14.0787 12.0329 -13.8283 13.1941 10.3981 -6.86486 14.8939 
12.5303 -14.8161 12.7771 11.12 -11.3535 13.9621 10.7694 -9.79723 14.1999 
10.5624 -8.48589 14.53 11.6966 -13.0543 13.6913 10.4745 -7.28706 14.9561 
10.4655 -6.05753 15.4665 10.4641 -5.31369 15.7699 12.6517 -15.3977 12.5327 
12.2903 -14.2129 13.2499 10.9492 -10.3904 14.346 11.3828 -12.0781 14.1247 
10.6994 -8.98625 14.6367 10.5658 -7.72945 15.0235 10.534 -6.49461 15.5222 
11.9992 -13.5908 13.7873 12.52 -14.5217 13.3471 10.6157 -4.88382 16.4586 
10.6125 -5.7243 16.0996 12.7226 -14.9754 13.1323 11.1582 -11.0386 14.5191 
10.8529 -9.5154 14.7666 10.6752 -8.19482 15.1053 10.6024 -6.94325 15.5486 
11.6768 -12.758 14.2752 12.8257 -15.515 12.9143 12.2924 -14.0193 13.8737 
10.6719 -6.20943 16.1077 11.0261 -10.082 14.9249 10.687 -7.39726 15.5927 
10.8044 -8.68662 15.2124 11.4035 -11.7264 14.7078 11.9965 -13.3559 14.3957 
10.7519 -5.13822 16.7947 12.6179 -14.493 13.8125 10.8064 -4.30687 17.3317 
10.7335 -6.65234 16.1109 12.864 -14.9764 13.5989 10.7915 -7.86796 15.6683 
10.9535 -9.20434 15.3521 11.2255 -10.691 15.1129 10.7833 -5.58158 16.732 
11.6938 -12.4359 14.8777 12.9798 -15.5785 13.3184 12.358 -13.9306 14.3995 
10.8128 -7.09201 16.1425 10.8183 -5.99493 16.6872 10.917 -8.35737 15.784 
11.1239 -9.75054 15.5243 11.461 -11.3618 15.3094 12.0401 -13.1521 14.9657 
12.703 -14.4308 14.3052 10.9255 -4.75829 17.5263 10.9928 -3.65884 18.2346 
10.8694 -6.39612 16.6661 12.9738 -14.908 14.1139 10.9127 -7.54145 16.2209 
11.0649 -8.86929 15.9379 11.319 -10.3409 15.7178 10.935 -5.29583 17.3611 
13.1155 -15.6005 13.7319 11.7452 -12.1078 15.4681 12.4026 -13.763 14.9597 
11.1044 -3.95313 18.4744 10.9421 -6.78974 16.6963 10.9558 -5.73121 17.2599 
11.0349 -8.01566 16.3461 11.2353 -9.41054 16.1201 11.5453 -11.0009 15.9061 
12.7362 -14.2525 14.8824 12.0696 -12.8326 15.561 11.0874 -4.53602 18.1835 
13.1383 -15.0804 14.3813 11.2346 -2.80221 19.3987 11.003 -6.09613 17.2392 
11.0355 -7.207 16.7732 11.1819 -8.52214 16.5103 11.4276 -9.99382 16.3117 
12.4013 -13.4396 15.5833 11.0746 -5.05418 17.9503 11.8064 -11.7091 16.0652 
12.9812 -14.5665 14.9149 13.2614 -15.5853 14.251 11.2986 -3.35623 19.3954 
11.0691 -6.46178 17.2613 11.1536 -7.66254 16.8995 11.0963 -5.42015 17.8718 
11.3524 -9.06377 16.6976 12.6929 -13.8705 15.6031 11.6421 -10.619 16.4964 
12.0974 -12.4025 16.1761 11.2246 -4.20927 18.8168 13.2287 -14.9372 14.9729 
11.5222 -2.0006 20.5468 11.1565 -6.85684 17.329 11.1371 -5.76088 17.8379 
11.2992 -8.16289 17.0663 12.9674 -14.2539 15.5884 11.5418 -9.63458 16.8906 
11.8811 -11.2745 16.658 12.3951 -12.9899 16.249 11.2214 -4.65552 18.6381 
13.3856 -15.5356 14.7714 11.4094 -3.31769 19.806 11.6033 -2.36242 20.7164 
11.1965 -6.11167 17.8425 11.2703 -7.29826 17.4469 11.4693 -8.70174 17.2568 
11.2379 -5.02465 18.5295 11.748 -10.2289 17.075 12.6924 -13.4952 16.2721 
12.1429 -11.9219 16.7869 13.173 -14.5014 15.688 11.3878 -3.78464 19.5767 
13.3715 -14.9617 15.4712 11.8683 -1.1746 21.7668 11.2778 -6.49475 17.8934 
11.4141 -7.79193 17.6102 11.2726 -5.3743 18.4638 11.6579 -9.26416 17.4531 
11.9719 -10.8408 17.2406 12.4237 -12.5403 16.8656 12.9516 -13.86 16.3265 
11.3791 -4.19602 19.3796 13.5048 -15.4463 15.3668 11.6263 -2.74267 20.7184 
11.3877 -6.92815 17.9971 11.3262 -5.73149 18.4418 11.5846 -8.32847 17.8025 
11.8606 -9.84115 17.6415 11.8949 -1.71473 21.7788 11.3885 -4.57849 19.2238 
13.2273 -14.3138 16.2516 12.2159 -11.4714 17.3687 12.7004 -13.0576 16.922 
11.5827 -3.22576 20.4374 13.446 -14.7918 16.0852 12.1211 -0.381167 22.7766 
11.4038 -6.11982 18.4698 11.5296 -7.41783 18.1521 11.4164 -4.95049 19.1144 
11.7747 -8.88998 18.0039 12.0777 -10.4381 17.8071 12.4739 -12.0805 17.4569 
11.5573 -3.67174 20.1682 12.9921 -13.5873 16.8925 11.863 -2.21449 21.6067 
13.598 -15.3311 15.9425 11.5112 -6.55592 18.5564 11.4655 -5.33209 19.0556 
11.7008 -7.95549 18.3429 13.2686 -14.0981 16.7974 11.9788 -9.46822 18.1962 
11.5553 -4.0932 19.9452 12.1312 -1.08092 22.6886 12.309 -11.05 17.9366 
12.7509 -12.7046 17.4702 11.7987 -2.72281 21.2697 13.5012 -14.6197 16.6424 
12.2842 0.427934 23.5634 11.5412 -5.73766 19.0586 11.652 -7.04959 18.6996 
11.5741 -4.51161 19.7737 11.8938 -8.52458 18.5468 11.7564 -3.19401 20.9375 
12.1942 -10.0623 18.3645 13.0335 -13.3045 17.4155 12.5564 -11.7002 17.9999 
12.085 -1.70452 22.4188 13.6676 -15.1935 16.4937 11.6193 -4.92532 19.6773 
11.648 -6.18803 19.1265 11.7384 -3.66145 20.6361 11.8237 -7.5952 18.8842 
13.3052 -13.8736 17.3065 12.1018 -9.11235 18.7427 12.0143 -2.2799 22.0305 
12.4211 -10.6918 18.4832 12.2998 -0.418713 23.4284 12.8161 -12.3662 17.9888 
13.5405 -14.4343 17.1618 11.7509 -4.10158 20.4252 11.6947 -5.35714 19.6551 
11.9537 -2.83201 21.603 11.7885 -6.6956 19.2552 12.4299 1.23596 24.1821 
12.0196 -8.17575 19.0856 12.3199 -9.72519 18.9084 13.0812 -13.0158 17.914 
12.2659 -1.20331 23.0984 12.6566 -11.3562 18.531 13.7167 -15.0347 17.0188 
12.1852 -1.9927 22.5761 11.9355 -3.29902 21.2893 11.7926 -4.53748 20.2996 
11.803 -5.83164 19.7042 13.3393 -13.6311 17.7972 11.9606 -7.25481 19.4289 
12.2314 -8.78152 19.2785 12.5448 -10.3675 19.0223 12.897 -12.0409 18.5021 
12.4283 0.200589 23.9968 13.569 -14.2269 17.6612 12.3727 -1.03104 23.4331 
12.1493 -2.52782 22.2061 11.946 -3.73902 21.0634 11.8671 -4.9952 20.2546 
11.9449 -6.36103 19.8183 12.1572 -7.85006 19.6203 13.1394 -12.718 18.412 
12.6048 2.02344 24.7032 12.4522 -9.41052 19.442 12.7713 -11.038 19.064 
13.7501 -14.8542 17.5225 12.4919 0.00948569 24.0986 12.3537 -1.69216 23.0876 
12.1411 -2.98373 21.9136 11.9839 -4.18624 20.9176 13.3772 -13.3669 18.2884 
11.9773 -5.49701 20.2869 12.1166 -6.93753 19.977 12.3695 -8.46861 19.8052 
12.9946 -11.7265 19.0274 12.6766 -10.0629 19.5568 12.6027 1.27326 24.6596 
13.5946 -13.9934 18.1579 12.3444 -2.2189 22.7799 12.5079 -0.696518 23.8553 
12.1526 -3.42243 21.6852 12.0561 -4.6652 20.8537 12.1215 -6.05023 20.3864 
12.3104 -7.54295 20.1536 13.2137 -12.4141 18.9284 12.5902 -9.10763 19.9652 
12.8975 -10.7366 19.6031 12.8408 2.87258 25.2623 13.7743 -14.6518 18.0132 
12.6162 0.532665 24.5221 12.3463 -2.6866 22.5085 12.5207 -1.32337 23.5851 
12.1877 -3.87811 21.5272 13.4273 -13.0829 18.7993 12.1675 -5.19181 20.872 
12.2924 -6.64052 20.5297 12.5181 -8.16629 20.3252 13.108 -11.4236 19.5707 
12.8135 -9.7672 20.084 12.7814 1.89663 25.1204 13.6259 -13.7316 18.6722 
12.6389 -0.205034 24.2923 12.5311 -1.87905 23.315 12.3619 -3.13838 22.2841 
12.257 -4.37417 21.4507 12.3144 -5.76396 20.9596 12.4806 -7.24882 20.6883 
13.3071 -12.111 19.4729 12.7339 -8.80793 20.4782 13.0307 -10.444 20.1419 
13.7961 -14.4286 18.4997 13.0812 3.62297 25.8289 12.753 1.04865 24.9158 
12.6703 -0.87661 24.0455 12.5444 -2.38441 23.0636 13.4967 -12.7866 19.344 
12.3975 -3.60794 22.1242 12.3686 -4.91963 21.4602 12.4848 -6.36032 21.089 
12.6789 -7.86779 20.8429 13.233 -11.1294 20.126 12.9523 -9.46993 20.5991 
12.9792 2.51001 25.5872 13.6727 -13.4441 19.2243 12.7639 0.28248 24.6808 
12.7 -1.49004 23.8 12.5669 -2.86772 22.8523 12.4661 -4.11992 22.0457 
12.5177 -5.50181 21.5414 12.6663 -6.96199 21.2297 13.4177 -11.8131 20.0428 
12.8835 -8.50358 20.983 13.1644 -10.1481 20.6712 13.822 -14.1898 18.9855 
13.3004 4.28506 26.4166 12.9068 1.57094 25.3102 12.802 -0.417055 24.4484 
12.728 -2.05452 23.5714 12.6078 -3.36203 22.7031 13.5873 -12.487 19.926 
12.578 -4.67786 22.0567 12.6882 -6.09319 21.6606 12.8513 -7.5674 21.3639 
13.3605 -10.8318 20.6796 13.0905 -9.16043 21.1009 13.8559 -13.9449 19.4654 
13.2935 -9.8352 21.1845 13.0387 -8.18746 21.4864 12.8628 -6.67778 21.7855 
12.7287 -5.25993 22.1394 12.892 0.761605 25.0479 12.848 -1.07305 24.2274 
12.68 -3.89221 22.6379 12.762 -2.58858 23.3818 13.1842 3.11052 26.0886 
13.5356 -11.5076 20.6258 13.7427 -13.1412 19.8272 13.2279 -8.83023 21.5948 
13.4827 -10.5147 21.2196 13.0333 -7.26 21.899 12.8981 -5.8355 22.2547 
12.7949 -4.45781 22.6652 13.6902 -12.1654 20.5409 12.8127 -3.12123 23.2573 
12.894 -1.69335 24.0281 12.9239 0.0386899 24.8149 13.0782 2.10232 25.7298 
13.4868 4.91062 26.9961 13.9026 -13.6792 19.9768 13.416 -9.49484 21.6828 
13.2 -7.85545 22.0001 13.6508 -11.1795 21.2059 13.0657 -6.3934 22.3674 
12.9472 -5.03169 22.7616 12.8944 -3.67445 23.223 12.9429 -2.28603 23.8701 
12.9791 -0.641577 24.6117 13.0318 1.23977 25.4192 13.8281 -12.7836 20.4883 
13.3824 3.71423 26.6275 13.3662 -8.47594 22.0925 13.5947 -10.1654 21.7408 
13.2219 -6.9443 22.4621 13.114 -5.58312 22.8824 13.0174 -4.247 23.2842 
[...]
POINT_DATA 724
VECTORS velocity double
1.05105 -2.04277 1.08033 1.2742 -1.56189 1.22783 0.826705 -2.71242 0.807702 
1.47702 -1.18085 1.23967 0.632569 -3.4424 0.509799 0.912182 -2.63068 0.889157 
1.63747 -0.824237 1.14778 0.446499 -4.20564 0.212843 1.1028 -2.18694 1.06671 
0.723295 -3.27976 0.632293 1.29491 -1.84904 1.15418 1.48725 -1.50321 1.16062 
1.73569 -0.522671 1.01361 0.545842 -3.95743 0.369407 0.266691 -4.95239 -0.056603 
0.870032 -2.88929 0.808955 1.61592 -1.30199 1.08343 1.06196 -2.45507 0.973924 
0.371635 -4.65864 0.115938 0.654335 -3.60888 0.530075 1.79205 -0.266971 0.865499 
0.0877153 -5.66492 -0.283225 1.29059 -2.07264 1.05688 1.73377 -1.01282 0.969857 
0.198009 -5.352 -0.113778 0.458154 -4.35637 0.259404 0.78548 -3.18715 0.696564 
1.47585 -1.80655 1.0131 1.81862 -0.060816 0.718327 0.957851 -2.75967 0.853232 
-0.0578886 -6.17666 -0.411388 0.26819 -5.11584 0.0136444 0.559432 -3.94883 0.416851 
1.81035 -0.748141 0.835916 0.0780069 -5.85053 -0.214822 1.13959 -2.45299 0.930891 
1.63561 -1.4938 0.910064 0.676468 -3.50047 0.577699 0.359092 -4.73065 0.164663 
-0.202997 -6.5889 -0.459828 1.82411 0.102886 0.575016 1.85381 -0.479339 0.694435 
1.32208 -2.19699 0.922107 -0.0643918 -6.34869 -0.318617 0.814032 -3.09259 0.721835 
0.172379 -5.50063 -0.0484698 0.455852 -4.28078 0.321208 1.75775 -1.12641 0.773466 
0.968895 -2.78346 0.817721 0.0237909 -6.08949 -0.173218 0.268511 -5.05875 0.113116 
0.558829 -3.81392 0.477385 1.50997 -1.86333 0.849232 1.81542 0.209615 0.460546 
-0.195065 -6.72376 -0.341721 -0.332384 -6.88583 -0.410386 1.85352 -0.538099 0.605501 
0.673638 -3.38659 0.623673 1.15318 -2.51046 0.852832 0.114646 -5.72499 -0.0210117 
0.363475 -4.57302 0.273158 1.69064 -1.37266 0.725716 -0.111086 -6.55365 -0.225085 
1.85709 -0.254966 0.479231 0.809184 -3.03964 0.745576 0.458727 -4.07676 0.432699 
0.208383 -5.27846 0.134955 1.37532 -2.14136 0.818239 -0.021068 -6.27629 -0.0965355 
-0.262438 -6.92174 -0.255753 -0.399912 -7.03361 -0.290828 1.79378 0.293847 0.348366 
1.77306 -1.00147 0.610897 0.559452 -3.61324 0.58886 0.990489 -2.73285 0.827253 
0.301257 -4.77973 0.295722 0.0752299 -5.90136 0.0464977 -0.160378 -6.72812 -0.141109 
1.54282 -1.74161 0.735096 1.80652 -0.683297 0.505 -0.396006 -7.03004 -0.129908 
-0.271881 -6.98788 -0.132937 1.82921 -0.159274 0.381195 0.679605 -3.2132 0.735963 
0.391881 -4.26127 0.460691 0.173564 -5.44447 0.202102 -0.0535776 -6.42428 -0.016119 
1.19377 -2.40524 0.842817 1.76062 0.345593 0.259266 1.65644 -1.32624 0.635894 
-0.157894 -6.76205 -0.0307293 0.483911 -3.76188 0.627305 0.0555806 -6.03229 0.125478 
0.269366 -4.92684 0.368472 0.833134 -2.88123 0.8556 1.38677 -1.98893 0.797528 
-0.272971 -6.98048 -0.00597783 1.75168 -0.77616 0.497989 -0.314177 -6.78626 0.129036 
-0.0479841 -6.45609 0.0804919 1.78538 -0.208035 0.351514 0.163072 -5.55922 0.284663 
0.359625 -4.38306 0.541564 0.586401 -3.31808 0.789786 -0.192253 -6.87085 0.0330579 
1.02862 -2.54237 0.920786 1.71984 0.368756 0.206685 1.56634 -1.43433 0.6867 
0.0643212 -6.07222 0.211462 -0.107575 -6.66935 0.096001 0.263611 -5.02504 0.457626 
0.44564 -3.85222 0.715696 0.716891 -2.93442 0.934026 1.25747 -2.08274 0.898232 
1.67996 -0.854159 0.540745 -0.178811 -6.76364 0.191908 -0.208808 -6.29854 0.478494 
-0.0113257 -6.39485 0.18115 1.72362 -0.294174 0.382576 0.173464 -5.61092 0.364263 
0.354554 -4.46037 0.637032 0.534423 -3.36263 0.88329 -0.118746 -6.70273 0.179179 
1.67287 0.375233 0.190867 0.89619 -2.56561 1.02653 1.45018 -1.53145 0.796339 
-0.103318 -6.30089 0.522312 0.0913064 -6.04806 0.291458 -0.0509302 -6.53309 0.20976 
0.274984 -5.08009 0.535013 0.43546 -3.90054 0.813218 0.640288 -2.92793 1.02911 
1.57086 -0.992107 0.659685 1.10282 -2.1413 1.0301 -0.0759089 -6.45639 0.390639 
1.66963 -0.0900199 0.35407 -0.0608487 -5.64958 1.01872 0.0317389 -6.29492 0.272133 
0.194343 -5.61783 0.427482 0.364456 -4.50643 0.71374 0.509961 -3.37638 0.974248 
1.28186 -1.65788 0.95527 -0.0438829 -6.45783 0.327727 0.775204 -2.54341 1.12525 
1.59685 -0.60466 0.569143 1.60621 0.373966 0.216008 0.000239378 -5.84474 0.896296 
0.122294 -5.98676 0.359329 0.292085 -5.10573 0.586534 0.00844727 -6.33417 0.333738 
0.438194 -3.92961 0.885722 1.38602 -1.21724 0.861879 0.586196 -2.9128 1.10522 
0.932963 -2.15784 1.14592 -0.0125112 -6.14182 0.5958 1.57813 -0.167445 0.462482 
0.270337 -5.4042 1.55489 0.215934 -5.59346 0.473879 0.0756573 -6.14535 0.367487 
0.376826 -4.53753 0.757593 1.44843 -0.789439 0.749902 0.496589 -3.39021 1.03489 
0.674548 -2.50959 1.18863 1.07551 -1.7454 1.09804 0.0138297 -6.1611 0.513977 
1.52951 0.37251 0.276614 0.0722049 -5.73997 1.01002 0.305349 -5.58114 1.48298 
0.152683 -5.88467 0.427441 0.306204 -5.11118 0.615242 0.441217 -3.95947 0.922299 
0.0565181 -6.09577 0.480771 0.546557 -2.90991 1.14825 1.19005 -1.30939 1.00344 
0.776784 -2.13765 1.20887 1.44099 -0.474162 0.679807 0.0586191 -5.82009 0.853828 
1.47119 -0.0409006 0.512446 0.803776 -5.6021 2.0977 0.23431 -5.53699 0.516577 
0.383403 -4.56263 0.774102 0.113037 -5.96258 0.479342 0.484929 -3.41537 1.06193 
0.596855 -2.48823 1.21449 0.887378 -1.75196 1.16321 1.24165 -0.925768 0.906638 
0.0708249 -5.85703 0.738863 1.42667 0.374973 0.363386 0.269594 -5.65212 1.35626 
0.314558 -5.09562 0.636209 0.178675 -5.75417 0.507937 0.438087 -3.99486 0.931489 
0.514357 -2.92462 1.16366 0.703271 -5.83273 1.8937 0.104363 -5.84287 0.660692 
1.29796 -0.483179 0.763848 0.656045 -2.10348 1.22332 0.97643 -1.36027 1.07345 
0.19056 -5.66153 1.15726 1.3324 -0.0554356 0.604834 1.098 -5.80958 2.45516 
0.250011 -5.45683 0.568759 0.38209 -4.5796 0.779494 0.151511 -5.76576 0.617496 
0.469507 -3.45245 1.06673 0.538366 -2.48392 1.21831 0.722716 -1.73464 1.17246 
0.164572 -5.66911 0.991734 1.06572 -0.927094 0.94519 0.55685 -5.86294 1.66971 
1.3084 0.376915 0.436245 0.31934 -5.06359 0.663759 0.208197 -5.61196 0.609059 
0.426909 -4.0332 0.928911 1.13592 -0.489715 0.799123 0.484586 -2.954 1.16544 
0.176491 -5.66178 0.863814 0.985394 -6.13036 2.19372 0.56418 -2.08467 1.21698 
0.805218 -1.33902 1.06883 0.41125 -5.78319 1.43253 1.18132 -0.0587605 0.642641 
1.13986 -5.82732 2.60641 0.269563 -5.36805 0.63789 0.375907 -4.58987 0.788357 
0.208458 -5.61371 0.772951 0.448621 -3.49946 1.06298 0.33017 -5.7054 1.2275 
0.491244 -2.50074 1.21699 0.89215 -0.919427 0.933185 0.602176 -1.69908 1.15498 
0.829117 -6.19214 1.93231 1.17539 0.370265 0.473715 0.252682 -5.4995 0.725316 
0.327305 -5.02788 0.705058 0.299137 -5.64085 1.05246 0.410617 -4.07475 0.92732 
0.968753 -0.491249 0.785097 0.45429 -3.0002 1.16429 0.662335 -6.08774 1.66848 
0.497207 -2.07839 1.21138 1.08225 -6.25343 2.34978 0.658662 -1.31029 1.04 
1.02157 -0.0676465 0.632548 0.303534 -5.57288 0.925841 0.301808 -5.30289 0.719717 
0.529524 -5.92233 1.41215 0.371362 -4.60334 0.807369 1.17891 -5.73994 2.66964 
0.424494 -3.55963 1.05889 0.451539 -2.5341 1.2202 0.730248 -0.90779 0.894706 
1.00241 -6.43755 2.10564 0.510218 -1.67814 1.14098 1.03074 0.35017 0.470216 
0.841515 -6.36776 1.80336 0.466534 -5.79556 1.21715 0.325271 -5.46853 0.84332 
0.345914 -5.01443 0.756547 0.802161 -0.496764 0.741459 0.395453 -4.1283 0.931395 
0.424461 -3.06374 1.16397 0.445622 -2.09687 1.21694 0.538606 -1.28857 1.01337 
1.08015 -6.25736 2.39175 0.85697 -0.0874566 0.588973 1.0558 -6.57403 2.11915 
0.729531 -6.22948 1.56655 0.438344 -5.68524 1.06664 0.353978 -5.30164 0.803724 
0.375396 -4.64038 0.833599 0.40202 -3.63784 1.05585 0.58569 -0.899709 0.853684 
1.35731 -5.57256 2.75423 0.416921 -2.59216 1.22687 0.441239 -1.68294 1.14415 
0.878838 0.316092 0.432649 1.07781 -6.43242 2.28654 0.993318 -6.62565 1.90896 
0.654074 -6.08531 1.36883 0.427529 -5.56333 0.954757 0.642728 -0.50791 0.688192 
0.37863 -5.05422 0.809433 0.387289 -4.20717 0.938257 0.397628 -3.15152 1.16049 
0.445235 -1.2866 1.00682 0.405015 -2.14496 1.2318 1.15194 -6.05443 2.48005 
0.692493 -0.117222 0.528534 0.916366 -6.5635 1.70833 1.10579 -6.67452 2.13561 
0.596627 -5.94213 1.20136 0.42562 -5.40172 0.883545 0.39036 -4.72361 0.859757 
0.385716 -3.74312 1.0495 0.464727 -0.902677 0.830217 0.387163 -2.67804 1.22901 
0.390515 -1.71946 1.16516 1.67823 -5.32378 2.95699 0.72484 0.270603 0.374116 
1.0812 -6.40356 2.27646 0.837237 -6.44258 1.51713 1.10965 -6.81737 1.98933 
0.549545 -5.79212 1.0645 0.498721 -0.526069 0.645345 0.423574 -5.17541 0.859323 
0.388504 -4.32549 0.94225 0.37632 -3.26645 1.14759 0.377429 -1.31341 1.02688 
0.372293 -2.22273 1.245 1.29856 -5.94717 2.52632 0.534771 -0.155545 0.469904 
1.11613 -6.67624 2.141 1.0708 -6.85129 1.82996 0.757976 -6.29249 1.34034 
0.510442 -5.61609 0.965214 0.414399 -4.87057 0.883619 0.377727 -3.88046 1.03578 
0.372582 -0.926207 0.838221 0.362255 -2.78982 1.21731 0.353112 -1.7876 1.19244 
0.575486 0.216646 0.310885 1.95785 -5.14009 3.25908 1.11773 -6.35142 2.26665 
1.16705 -6.89394 2.03231 0.999929 -6.79227 1.6592 0.380091 -0.556662 0.632327 
0.678445 -6.12354 1.18558 0.476573 -5.388 0.914518 0.398172 -4.49014 0.943472 
0.361657 -3.40708 1.12169 0.330875 -1.37247 1.06569 0.344636 -2.32564 1.24321 
1.49699 -5.78897 2.65491 0.394311 -0.203666 0.434877 1.10768 -6.63765 2.12139 
1.17459 -7.03311 1.9169 0.908858 -6.67004 1.48767 0.602952 -5.92731 1.06545 
0.445041 -5.0845 0.91592 0.37762 -4.04925 1.01686 0.30977 -0.978713 0.87854 
0.342001 -2.92277 1.18685 0.323277 -1.88227 1.20883 0.440233 0.156402 0.260943 
2.09478 -5.05399 3.56115 1.19992 -6.26101 2.28889 1.16959 -6.88323 2.03106 
1.12807 -7.0705 1.7828 0.806109 -6.50496 1.32936 0.294566 -0.608802 0.660762 
0.537486 -5.68065 0.996292 0.415122 -4.69861 0.954488 0.353495 -3.56896 1.08624 
0.298057 -1.4619 1.10461 0.319859 -2.44752 1.2182 0.329439 0.090631 0.239932 
0.295983 -1.99586 1.20076 0.326146 -3.07201 1.14094 0.384801 -4.24417 1.00653 
0.485185 -5.35523 0.982081 1.10879 -6.57902 2.10145 1.2168 -7.09604 1.95484 
0.702304 -6.29733 1.20416 1.04012 -7.01382 1.63677 1.68027 -5.61823 2.86759 
0.270172 -1.06637 0.937336 0.284368 -0.266586 0.443993 0.297094 -2.58301 1.17118 
0.27038 -1.57366 1.12347 0.351752 -3.74702 1.0555 0.442617 -4.94138 1.00358 
0.612888 -6.02641 1.13354 0.242048 -0.700357 0.730631 0.927188 -6.88265 1.49782 
1.20759 -7.23737 1.86892 1.14255 -6.83134 2.00556 1.31957 -6.12008 2.3705 
2.08922 -4.94693 3.74944 0.241778 0.0116086 0.256957 0.26847 -2.12129 1.16483 
0.315285 -3.23318 1.09346 0.242449 -1.18312 0.988404 0.402397 -4.45809 1.03418 
0.545385 -5.66355 1.11898 0.810255 -6.68221 1.39443 1.1393 -7.27667 1.7702 
1.20486 -7.07194 1.95077 1.13647 -6.4931 2.10364 0.214412 -0.375948 0.519153 
1.78961 -5.45796 3.11677 0.277186 -2.72807 1.11434 0.241522 -1.69775 1.11107 
0.359334 -3.93651 1.05836 0.492321 -5.20703 1.13336 0.711855 -6.39118 1.35145 
1.03377 -7.21117 1.67897 0.211974 -0.828038 0.813028 1.22986 -7.2876 1.90885 
1.11087 -6.7613 1.9768 1.45344 -5.92252 2.53366 2.00954 -4.67867 3.77111 
0.179082 -0.092536 0.321626 0.240889 -2.2539 1.10961 0.312231 -3.40306 1.07165 
0.215345 -1.31398 1.00862 0.441268 -4.6864 1.14534 0.640081 -5.98757 1.36354 
0.922265 -7.03827 1.63018 1.19354 -7.42818 1.86983 1.1562 -7.00209 1.92191 
1.19801 -6.35231 2.15485 0.179456 -0.505793 0.617191 1.80488 -5.27054 3.3119 
0.263107 -2.88079 1.07236 0.209419 -1.82503 1.07002 0.385573 -4.1366 1.1405 
0.581204 -5.48603 1.38943 0.834596 -6.73865 1.65189 0.18792 -0.964311 0.866218 
1.11103 -7.44996 1.84802 1.09358 -6.66457 1.9656 1.19565 -7.24124 1.9073 
1.56353 -5.68087 2.7693 0.144456 -0.222278 0.422292 1.92772 -4.22026 3.66943 
0.216174 -2.39114 1.05631 0.324683 -3.58235 1.11906 0.182861 -1.44156 0.991481 
0.518884 -4.92889 1.39112 0.773304 -6.3021 1.72302 1.02307 -7.32333 1.88219 
1.19052 -7.45605 1.92247 1.28779 -6.13177 2.28137 1.08929 -6.89868 1.88901 
0.158084 -0.647606 0.69843 1.76214 -4.9382 3.36953 0.261288 -3.04214 1.08518 
0.176112 -1.95038 1.01714 0.44707 -4.35262 1.35628 0.715848 -5.7652 1.7828 
0.961808 -7.02518 1.9941 0.158613 -1.09703 0.877773 1.14203 -7.56637 1.97876 
1.11725 -7.13699 1.87975 1.11583 -6.47266 2.01639 1.60425 -5.43052 2.97664 
0.126121 -0.369273 0.522634 0.200107 -2.53453 1.04046 0.367225 -3.77811 1.29091 
1.86315 -3.67799 3.52463 0.145005 -1.56213 0.950055 0.644637 -5.18285 1.78801 
0.919976 -6.56545 2.13915 1.08872 -7.49276 2.10614 1.12949 -7.37825 1.93208 
1.03266 -6.75813 1.87721 1.43138 -5.72572 2.59515 0.133697 -0.788976 0.738784 
1.66962 -4.77154 3.2201 0.14693 -2.07693 0.983024 0.283824 -3.21938 1.20635 
0.556008 -4.58904 1.73064 0.868626 -6.00674 2.24012 0.120791 -1.22012 0.854937 
1.05737 -7.19722 2.30382 1.11419 -7.54354 2.05666 1.01865 -7.00101 1.8483 
1.1981 -6.14665 2.17602 0.107293 -0.520317 0.588306 0.202808 -2.69209 1.11217 
1.50913 -5.3202 2.88773 0.105978 -1.67736 0.909602 0.454024 -3.99961 1.62229 
0.793052 -5.41434 2.25824 1.80488 -3.24828 3.39272 1.03094 -6.71599 2.50076 
1.01437 -6.5404 1.9151 1.09583 -7.50587 2.2638 1.02477 -7.23148 1.91692 
0.0989147 -0.920922 0.737206 0.130835 -2.21291 1.01278 1.64433 -4.26685 3.11838 
0.345364 -3.42429 1.4802 1.29145 -5.75667 2.40837 0.693423 -4.81892 2.1944 
0.0769158 -1.33192 0.818161 0.982919 -6.14201 2.62189 0.927503 -6.8317 1.83304 
1.08639 -7.20401 2.51351 1.02726 -7.39135 2.08751 0.0772767 -0.664408 0.608187 
1.48258 -5.01539 2.90025 0.238081 -2.87617 1.32123 0.0738765 -1.79396 0.909136 
0.574831 -4.22868 2.06312 1.03786 -6.23068 2.01044 0.906479 -5.54913 2.6476 
0.900068 -7.0415 1.89763 1.06466 -6.70217 2.71893 1.03145 -7.34275 2.3407 
1.72913 -2.90328 3.24535 0.0537802 -1.0392 0.70985 1.3093 -5.4484 2.54211 
0.140622 -2.37159 1.15806 0.444237 -3.64785 1.88141 1.6195 -3.77375 2.99538 
0.864349 -6.596 1.84496 0.80511 -4.96539 2.5905 0.0338961 -1.43553 0.800261 
1.01569 -6.11792 2.82935 0.895895 -7.1396 2.08754 1.03122 -7.02018 2.59822 
0.0337027 -0.795289 0.593991 1.45376 -4.63607 2.82079 0.0607805 -1.92481 0.99803 
1.07033 -5.86093 2.13251 0.311039 -3.08661 1.66757 0.682306 -4.39054 2.4642 
0.941967 -5.5321 2.85095 0.779502 -6.79659 1.88187 1.00827 -6.50602 2.77875 
0.901242 -7.02437 2.34701 1.63211 -2.63474 3.06792 0.00388968 -1.14433 0.687242 
1.29376 -5.13333 2.58993 0.186212 -2.56147 1.43994 0.542071 -3.81941 2.27731 
0.00295869 -1.53916 0.84421 0.841662 -6.23952 1.88708 1.58497 -3.31625 2.87337 
0.847714 -4.96908 2.80521 0.9598 -5.92672 2.86244 0.744404 -6.816 2.06102 
0.899936 -6.66474 2.58102 1.43682 -4.16248 2.69841 -0.0189244 -0.914064 0.576962 
1.09675 -5.4539 2.25529 0.0801784 -2.08885 1.21305 0.391595 -3.25281 2.03817 
0.733439 -4.4232 2.70217 0.89354 -5.35842 2.87355 0.691711 -6.43767 1.85847 
0.876492 -6.15106 2.7247 0.735229 -6.61732 2.30366 1.51586 -2.41599 2.85221 
-0.0387693 -1.24767 0.719152 1.26812 -4.76024 2.53503 -0.00088719 -1.67195 0.992607 
0.599272 -3.88222 2.54019 0.241376 -2.6974 1.75792 0.812625 -4.82123 2.83644 
0.882282 -5.70433 1.98093 0.83348 -5.59425 2.78084 0.726691 -6.21319 2.50388 
0.609222 -6.43449 1.99612 1.52725 -2.90748 2.73827 1.42159 -3.67377 2.56992 
-0.0667117 -1.03888 0.61747 1.12001 -4.983 2.33646 0.448689 -3.33679 2.31376 
0.714596 -4.30736 2.75832 0.778681 -5.05572 2.77925 0.101795 -2.15464 1.43924 
0.704689 -5.70241 2.61442 0.670796 -5.92913 1.83258 0.573704 -6.18832 2.20683 
1.38454 -2.22534 2.59711 -0.0313333 -1.5249 0.975091 1.29869 -4.02245 2.41438 
0.595693 -3.79974 2.62927 0.714536 -4.55086 2.74413 0.288423 -2.77832 2.01609 
0.669761 -5.17464 2.64788 0.930085 -5.18205 2.07469 0.555434 -5.75457 2.38065 
0.523593 -5.96766 1.87235 1.44368 -2.80925 2.54278 -0.0801557 -1.19108 0.773942 
0.118558 -2.16626 1.60095 0.637775 -4.07414 2.68334 1.13107 -4.46529 2.25879 
0.453759 -3.27605 2.42642 0.626981 -4.67023 2.63341 0.534237 -5.24553 2.46976 
0.447269 -5.75199 2.03394 0.713911 -5.33354 1.83716 1.26414 -2.07471 2.35055 
0.00441233 -1.68968 1.23654 1.32464 -3.31705 2.30938 0.542985 -3.61112 2.58683 
0.285406 -2.69541 2.10491 0.578489 -4.19986 2.59274 0.50656 -4.74041 2.4908 
0.413126 -5.32888 2.18695 0.963484 -4.69391 2.07731 0.50295 -5.42142 1.72768 
1.36097 -2.50506 2.38192 0.426566 -3.14305 2.42707 0.522315 -3.76153 2.53589 
-0.0401936 -1.43201 1.09339 1.18799 -3.67509 2.1227 0.472919 -4.2645 2.46895 
0.391164 -4.82926 2.27119 0.367577 -5.28743 1.78955 0.126477 -2.11268 1.71268 
0.753981 -4.84779 1.8379 1.14132 -1.93388 2.08429 1.29589 -2.56732 2.20156 
0.294838 -2.6636 2.18119 0.455629 -3.35364 2.4616 0.434489 -3.82141 2.42143 
0.36798 -4.33885 2.2934 0.305328 -4.92275 1.91569 0.988832 -4.16954 1.9506 
0.526202 -4.89696 1.6201 0.375735 -2.96884 2.35108 0.0318641 -1.67577 1.42171 
0.391505 -3.41266 2.35844 1.18876 -3.07356 1.98386 0.339813 -3.87985 2.27467 
0.277229 -4.44959 2.00196 0.330368 -4.81644 1.54331 0.178434 -2.21526 1.9047 
0.781326 -4.41614 1.75861 1.04289 -1.82773 1.85753 0.285568 -2.59246 2.18424 
1.19734 -2.29085 2.003 0.343337 -3.04337 2.28406 0.306629 -3.45003 2.22912 
0.22601 -4.5195 1.60255 0.536966 -4.50079 1.51919 0.255957 -3.97475 2.0326 
1.02897 -3.48881 1.7792 0.289243 -2.7094 2.19177 0.10651 -1.87352 1.68912 
0.267958 -3.04517 2.16094 0.780056 -3.99798 1.58342 0.309149 -4.40249 1.3359 
0.183614 -4.08969 1.67363 0.23275 -3.52821 2.02665 0.195233 -2.21069 1.967 
1.14158 -2.41632 1.82711 0.947956 -1.73305 1.62209 0.231154 -2.40122 2.06957 
0.224682 -2.66826 2.07278 1.00475 -3.05165 1.60144 0.517342 -4.16494 1.35665 
0.167398 -4.13277 1.2909 0.204958 -3.10683 1.99538 0.162381 -3.63695 1.71166 
0.178586 -2.32264 1.96349 0.132774 -1.90915 1.77598 0.877459 -1.67218 1.43018 
1.05012 -2.24106 1.61281 0.750612 -3.59887 1.35933 0.17025 -2.69765 1.93604 
0.289487 -4.05446 1.13656 0.104767 -3.74283 1.32427 0.145162 -3.20622 1.72217 
0.154706 -2.07476 1.87709 0.934393 -2.76735 1.38154 0.130081 -2.29986 1.8471 
0.121703 -3.79072 1.01052 0.5082 -3.77327 1.13016 0.125434 -2.80369 1.71218 
0.0811922 -3.30728 1.36168 0.0956968 -1.94933 1.74388 0.813654 -1.63146 1.23622 
0.951682 -2.11927 1.3699 0.090144 -1.75253 1.67 0.0998018 -2.41385 1.67891 
0.0386039 -3.41352 0.999456 0.269669 -3.73408 0.911394 0.75196 -3.02659 1.11106 
0.0685695 -2.8861 1.37696 0.070102 -2.04437 1.62811 0.0761787 -3.48464 0.755379 
0.517327 -3.29289 0.866105 0.0100197 -2.98167 1.01304 0.865693 -2.22435 1.13586 
0.057816 -2.49499 1.38434 0.0392977 -1.73556 1.54347 0.0306748 -1.55199 1.50295 
0.754859 -1.61814 1.03307 0.231024 -3.40335 0.648352 -0.0183145 -3.10335 0.701143 
0.0427412 -2.11338 1.37993 0.000782257 -2.55519 1.01873 0.741811 -2.4047 0.876778 
0.0194943 -1.74125 1.34891 0.0348517 -3.17489 0.483145 0.466503 -2.92073 0.591503 
0.699764 -1.63144 0.831497 -0.0505401 -2.65949 0.685656 -0.00692591 -1.41824 1.30697 
0.000363414 -2.16918 1.04465 -0.0651037 -2.80687 0.417551 0.205245 -2.98604 0.334447 
0.626877 -2.22914 0.588824 -0.00226628 -1.77551 1.08314 -0.0564496 -2.21333 0.672886 
0.636889 -1.66558 0.616753 -0.0177628 -1.40794 1.0797 0.00624299 -2.81287 0.173519 
0.423112 -2.39919 0.270126 -0.0992906 -2.35947 0.378765 -0.0366968 -1.8186 0.786485 
-0.0995651 -2.49306 0.131455 0.529149 -1.72739 0.315948 0.196717 -2.44181 -0.0104478 
-0.0366502 -1.43391 0.790664 -0.0785928 -1.82061 0.49306 -0.113731 -1.9372 0.272044 
-0.00206192 -2.36232 -0.162004 -0.137281 -2.03654 0.0467041 0.367369 -1.80077 -0.024118 
-0.0706055 -1.46636 0.486214 -0.115569 -2.13367 -0.174519 0.148468 -1.84873 -0.344289 
-0.111009 -1.52168 0.202403 -0.0557576 -1.80959 -0.471798 -0.143376 -1.59725 -0.0411171 
-0.149468 -1.6943 -0.300018 
