# vtk DataFile Version 3.0
vtk output
ASCII
DATASET POLYDATA
POINTS 724 float
10.0949 -10.3452 10.9788 10.2874 -11.4208 10.8589 9.92857 -9.14291 11.2264 
10.4942 -12.3584 10.8351 9.82119 -8.04555 11.5678 10.0999 -9.61788 11.4777 
10.7175 -13.1797 10.8888 9.76329 -7.00846 12.0039 10.2736 -10.5465 11.4106 
10.0014 -8.64855 11.7987 10.4541 -11.3789 11.3983 10.6345 -12.1778 11.3699 
10.9277 -13.8243 11.0051 9.92519 -7.71015 12.1448 9.75649 -6.03604 12.5202 
10.2076 -9.52447 11.9214 10.8187 -12.718 11.5144 10.4019 -10.466 11.9176 
9.88936 -6.79694 12.572 10.1049 -8.47206 12.2904 11.1353 -14.357 11.1791 
9.80163 -5.06996 13.124 10.6161 -11.414 11.9246 11.0171 -13.3064 11.6278 
9.88484 -5.86009 13.0531 10.0375 -7.46425 12.7008 10.2923 -9.31089 12.39 
10.8375 -12.1477 12.0715 11.339 -14.7934 11.4091 10.48 -10.2092 12.4124 
9.87662 -4.26837 13.6807 10.0056 -6.44357 13.1748 10.1989 -8.21335 12.8054 
11.2185 -13.8107 11.7913 9.97191 -5.27702 13.6137 10.6759 -11.0145 12.4895 
11.0617 -12.8174 12.2189 10.3687 -9.019 12.8855 10.1406 -7.14356 13.2554 
9.98515 -3.46699 14.3001 11.5438 -15.1553 11.7018 11.4244 -14.2901 11.9752 
10.8879 -11.7399 12.638 10.0276 -4.40928 14.1327 10.5429 -9.83374 12.9473 
10.1036 -6.02814 13.7199 10.2894 -7.88798 13.3358 11.2979 -13.4581 12.3672 
10.7332 -10.6072 13.0565 10.1232 -5.06799 14.206 10.2395 -6.77475 13.7996 
10.4475 -8.66174 13.4148 11.1168 -12.4617 12.7774 11.7183 -15.4064 12.0006 
10.1224 -3.57363 14.7187 10.1231 -2.69952 14.9809 11.5679 -14.3158 12.3661 
10.6163 -9.44471 13.502 10.9447 -11.3668 13.2001 10.2342 -5.74301 14.2881 
10.3844 -7.5277 13.8788 11.3727 -13.2523 12.8444 10.1912 -4.12233 14.7739 
11.7705 -14.775 12.5523 10.8037 -10.2184 13.6248 10.539 -8.29399 13.9648 
10.3572 -6.45061 14.3595 11.1812 -12.1729 13.3118 10.2688 -4.72159 14.8194 
10.2581 -3.00044 15.3397 10.2631 -2.05788 15.6306 11.9102 -15.6218 12.3804 
11.588 -13.8034 12.9559 10.7062 -9.06585 14.0687 11.0146 -11.0192 13.7569 
10.4945 -7.18509 14.4371 10.3634 -5.3792 14.867 10.3243 -3.60064 15.3841 
11.4146 -12.8489 13.4416 11.7957 -14.2688 13.1084 10.3974 -1.49139 16.2559 
10.3953 -2.53222 15.9362 11.9746 -14.9891 12.96 10.8914 -9.84749 14.1949 
10.6455 -7.93873 14.53 10.477 -6.08353 14.9241 10.395 -4.26609 15.3979 
11.2403 -11.7805 13.8981 12.0999 -15.7729 12.8084 11.6525 -13.4529 13.5745 
10.4565 -3.22734 15.9438 10.811 -8.70235 14.6426 10.4844 -4.96544 15.4239 
10.6093 -6.82253 14.9992 11.096 -10.626 14.3401 11.484 -12.5108 14.0344 
10.516 -1.78106 16.5681 11.9212 -14.1952 13.5825 10.5547 -0.847096 17.009 
10.5232 -3.91176 15.9417 12.1368 -14.9731 13.4457 10.5951 -5.698 15.4736 
10.7591 -7.5776 15.0982 10.9937 -9.46742 14.7783 10.5531 -2.37955 16.525 
11.3235 -11.4191 14.4818 12.2722 -15.8565 13.2413 11.7606 -13.3117 14.0865 
10.6092 -4.61401 15.9599 10.5969 -2.99857 16.4927 10.7265 -6.45015 15.5542 
10.9254 -8.33572 15.2208 11.1969 -10.254 14.922 11.5821 -12.2725 14.574 
12.0397 -14.0944 14.0634 10.6655 -1.37891 17.2135 10.703 -0.242889 17.7357 
10.6566 -3.63786 16.4758 12.275 -14.8657 13.9528 10.7173 -5.33656 16.0145 
10.8775 -7.21116 15.6633 11.1086 -9.10398 15.3585 10.6929 -2.08799 17.1008 
12.4282 -15.8891 13.6669 11.4247 -11.0961 15.0413 11.8563 -13.0988 14.6099 
10.8088 -0.583043 17.9782 10.7386 -4.28914 16.4998 10.7297 -2.73575 17.0304 
10.8477 -6.08335 16.1041 11.0465 -7.97711 15.7927 11.3104 -9.90485 15.4913 
12.1231 -13.8441 14.597 11.6723 -11.9416 15.1269 10.8161 -1.23907 17.7919 
12.4572 -15.1469 14.2427 10.8817 0.483303 18.6105 10.7894 -3.32874 17.0238 
10.8428 -4.98118 16.5586 11.0001 -6.84785 16.2215 11.231 -8.75422 15.9278 
11.9257 -12.7233 15.1775 10.8286 -1.90747 17.635 11.5297 -10.7228 15.6083 
12.3442 -14.3594 14.6781 12.602 -15.8792 14.1815 10.9671 -0.0878273 18.7008 
10.8684 -3.94641 17.0493 10.9716 -5.7154 16.6525 10.8687 -2.45443 17.596 
11.1717 -7.62217 16.3543 12.1628 -13.3478 15.2402 11.4293 -9.5373 16.0596 
11.7632 -11.5253 15.7043 10.9457 -0.997285 18.33 12.5873 -14.962 14.795 
11.0561 1.19535 19.444 10.9697 -4.61569 17.1075 10.9256 -3.00391 17.5886 
11.125 -6.48008 16.7732 12.3979 -13.9434 15.2809 11.357 -8.39411 16.4917 
11.6412 -10.3184 16.1818 12.0012 -12.2506 15.7927 10.9707 -1.57077 18.2362 
12.758 -15.8295 14.6831 11.076 -0.133148 19.0669 11.1586 0.83335 19.668 
11.0013 -3.59437 17.6086 11.097 -5.33946 17.1997 11.2984 -7.25507 16.9091 
11.0094 -2.0982 18.1866 11.5536 -9.15707 16.6269 12.2434 -12.9322 15.8564 
11.8657 -11.0768 16.2948 12.5968 -14.3548 15.4197 11.0964 -0.676898 18.9609 
12.7722 -15.0466 15.2831 11.2492 2.00466 20.3413 11.0999 -4.24523 17.6614 
11.251 -6.10156 17.3206 11.0639 -2.63839 18.1652 11.4856 -8.0214 17.0505 
11.7619 -9.90879 16.7575 12.1012 -11.8195 16.3866 12.4711 -13.4755 15.9578 
11.1199 -1.19048 18.8643 12.92 -15.7363 15.25 11.2302 0.396053 19.7723 
11.2262 -4.95977 17.7489 11.1375 -3.22121 18.1746 11.4267 -6.87611 17.4594 
11.6833 -8.77325 17.1917 11.3386 1.49536 20.4811 11.1553 -1.70585 18.791 
12.7113 -14.1543 15.9537 11.9834 -10.6616 16.8727 12.3368 -12.4849 16.4801 
11.2489 -0.170086 19.6443 12.9057 -14.8581 15.8653 11.4261 2.7836 21.1411 
11.2357 -3.868 18.2186 11.3808 -5.71886 17.8679 11.207 -2.24708 18.7482 
11.6171 -7.64271 17.6056 11.892 -9.52131 17.3249 12.2135 -11.3907 16.9756 
11.2696 -0.71531 19.5089 12.5836 -13.2041 16.5106 11.3856 0.944986 20.4681 
13.0633 -15.6122 15.8025 11.3625 -4.57968 18.3011 11.2801 -2.83846 18.7409 
11.5586 -6.49506 18.0078 12.8211 -13.9295 16.4884 11.8183 -8.39951 17.7501 
11.3032 -1.25992 19.3996 11.5055 2.16044 21.2167 12.1116 -10.2659 17.4444 
12.4542 -12.1572 17.0315 11.4002 0.342376 20.3063 13.0259 -14.6737 16.4118 
11.5874 3.53632 21.8407 11.3799 -3.48954 18.7771 11.5182 -5.33993 18.417 
11.3539 -1.83701 19.3243 11.7526 -7.26961 18.156 11.4194 -0.240607 20.134 
12.029 -9.15113 17.8857 12.696 -12.9317 17.0405 12.3417 -11.044 17.526 
11.5384 1.5104 21.1277 13.1904 -15.4595 16.3437 11.4292 -2.44817 19.3029 
11.5091 -4.20522 18.8551 11.452 -0.841485 19.9788 11.6976 -6.12242 18.5552 
12.9289 -13.7022 17.0061 11.9578 -8.03707 18.302 11.5484 0.84292 20.9268 
12.2496 -9.92397 17.9945 11.6625 2.81719 21.8727 12.5765 -11.8473 17.5626 
13.135 -14.475 16.939 11.5068 -1.43984 19.8883 11.5334 -3.11243 19.3335 
11.5638 0.156235 20.6896 11.6666 -4.97181 18.9674 11.7364 4.26145 22.4475 
11.8943 -6.90705 18.7019 12.1718 -8.81208 18.4318 12.8097 -12.6577 17.5563 
11.6855 2.05166 21.7189 12.4766 -10.7235 18.0631 13.303 -15.2792 16.8744 
11.6822 1.17726 21.4088 11.6042 -0.455572 20.5338 11.587 -2.06589 19.8598 
11.6675 -3.83925 19.4088 13.0339 -13.458 17.5171 11.8472 -5.76252 19.1016 
12.1025 -7.69302 18.843 12.393 -9.60345 18.5333 12.7038 -11.5456 18.0868 
11.8091 3.40531 22.4342 13.2358 -14.2514 17.4593 11.7999 2.23257 22.0712 
11.7116 0.518855 21.2132 11.6662 -1.05819 20.4431 11.697 -2.74483 19.8876 
11.8283 -4.61604 19.5185 12.0443 -6.55925 19.2416 12.926 -12.3735 18.0716 
11.8784 4.94433 22.9779 12.3184 -8.48582 18.9669 12.6167 -10.4151 18.5953 
13.4039 -15.0715 17.3968 11.9052 3.24426 22.6304 11.8267 1.5234 21.8862 
11.7619 -0.080503 21.0763 11.7526 -1.69399 20.4129 13.1389 -13.1915 18.0313 
11.8373 -3.48523 19.9625 12.0092 -5.41575 19.6465 12.2525 -7.3575 19.3751 
12.8364 -11.2436 18.6142 12.5397 -9.29002 19.0648 11.9702 4.37421 23.0842 
13.3329 -13.9991 17.9824 11.8672 0.900416 21.7306 11.9461 2.5715 22.517 
11.8311 -0.684292 20.9908 11.8688 -2.38728 20.4402 12.0022 -4.27204 20.07 
12.204 -6.21897 19.7779 13.0476 -12.0774 18.5966 12.4681 -8.16113 19.4934 
12.7608 -10.1085 19.1271 12.0424 5.65722 23.5307 13.4962 -14.8381 17.9133 
12.0463 3.73866 23.0922 11.9239 0.301371 21.6077 11.9832 1.92829 22.374 
11.924 -1.32995 20.9617 13.2478 -12.9031 18.5586 12.0156 -3.14115 20.5162 
12.1829 -5.07609 20.1922 12.4086 -7.0222 19.902 12.974 -10.9386 19.1485 
12.6884 -8.97393 19.5902 12.126 4.93097 23.5815 13.4311 -13.7166 18.5199 
12.0947 3.05216 22.9829 12.0287 1.3082 22.2358 11.9998 -0.311957 21.528 
12.0466 -2.03796 20.9912 12.1848 -3.93474 20.623 12.3735 -5.87968 20.3141 
13.1753 -11.7718 19.1353 12.6206 -7.83049 20.0142 12.9065 -9.79713 19.6569 
13.5828 -14.582 18.4252 12.2135 6.28582 24.0597 12.1895 4.21882 23.5346 
12.1393 2.39014 22.8477 12.0896 0.693612 22.122 13.3633 -12.597 19.105 
12.0999 -0.971114 21.5041 12.1993 -2.80381 21.0704 12.3656 -4.73825 20.7406 
12.5714 -6.68111 20.4283 13.1143 -10.6277 19.6878 12.8369 -8.6475 20.1096 
12.2842 5.46127 24.0606 13.5346 -13.4057 19.0819 12.2405 3.51863 23.4195 
12.1904 1.74434 22.7181 12.1713 0.0615425 22.0508 12.2293 -1.69398 21.5399 
12.3723 -3.6005 21.1788 12.5514 -5.53626 20.8539 13.3074 -11.458 19.6859 
12.7758 -7.48802 20.532 13.0503 -9.47247 20.1823 13.6652 -14.3095 18.9281 
12.3946 6.85005 24.5917 12.3358 4.69235 23.971 12.2919 2.84398 23.2901 
12.2561 1.10052 22.6138 12.279 -0.615487 22.0365 13.4848 -12.2786 19.6703 
12.3869 -2.4694 21.6261 12.5535 -4.39822 21.2938 12.7405 -6.33013 20.9571 
13.2522 -10.3007 20.2263 12.9837 -8.30313 20.6242 13.7431 -14.0309 19.4107 
13.1892 -9.12508 20.7019 12.9333 -7.12848 21.0511 12.7347 -5.18533 21.4006 
12.5625 -3.2655 21.7391 12.3847 3.96937 23.8407 12.3503 2.1799 23.1713 
12.4156 -1.35231 22.0844 12.344 0.440414 22.5541 12.4509 5.96726 24.5451 
13.4376 -11.1216 20.2428 13.646 -13.0748 19.6741 13.1286 -7.93492 21.1377 
13.3838 -9.94638 20.7602 12.914 -5.96559 21.4939 12.7429 -4.05361 21.8544 
12.5775 -2.13378 22.1825 13.6046 -11.9221 20.2516 12.4592 -0.259111 22.5549 
12.423 1.51159 23.0814 12.4411 3.28249 23.7114 12.4891 5.156 24.4142 
12.5819 7.37404 25.125 13.8226 -13.7281 19.9077 13.3223 -8.74836 21.2177 
13.0929 -6.74906 21.5773 13.5611 -10.7513 20.8009 12.9196 -4.82533 21.957 
12.754 -2.92651 22.3039 12.6028 -1.00825 22.6207 12.5171 0.8235 23.0383 
12.508 2.60784 23.6033 12.5323 4.40726 24.2614 13.7551 -12.6719 20.2965 
12.628 6.46397 25.044 13.2722 -7.5411 21.6563 13.5068 -9.55741 21.2891 
13.0898 -5.58695 22.043 12.9323 -3.70216 22.4235 12.7688 -1.79385 22.7356 
[...]
POINT_DATA 724
VECTORS velocity double
1.01107 -1.30156 1.22722 1.15582 -1.02127 1.32126 0.88348 -1.75159 1.06851 
1.29894 -0.792388 1.33068 0.797833 -2.32935 0.918851 0.911481 -1.71083 1.08412 
1.42351 -0.535348 1.25528 0.749321 -3.01574 0.81043 1.01667 -1.44633 1.19262 
0.81475 -2.18462 0.927546 1.13444 -1.27544 1.25593 1.26854 -1.08331 1.27153 
1.50826 -0.272728 1.12658 0.753171 -2.74673 0.80484 0.749302 -3.75193 0.758638 
0.856518 -1.91625 0.985336 1.3545 -0.979436 1.21213 0.946275 -1.67561 1.08093 
0.728161 -3.39201 0.730045 0.755408 -2.44218 0.81319 1.56081 -0.0152278 0.967133 
0.808424 -4.5068 0.755066 1.07646 -1.5073 1.14679 1.4495 -0.766833 1.10982 
0.753557 -4.08861 0.713292 0.705173 -3.07096 0.700664 0.7744 -2.14343 0.857814 
1.18285 -1.41704 1.11803 1.58564 0.216606 0.795404 0.835942 -1.90804 0.939715 
0.89743 -5.12518 0.779452 0.710394 -3.78727 0.663401 0.686313 -2.70565 0.696062 
1.5184 -0.530106 0.968397 0.795285 -4.58872 0.707796 0.91574 -1.79874 0.989805 
1.29398 -1.2511 1.03544 0.684018 -2.37215 0.729211 0.663357 -3.37607 0.620748 
1.00522 -5.78636 0.827694 1.58791 0.418821 0.618749 1.56688 -0.2427 0.799267 
1.00448 -1.74145 0.987289 0.894392 -5.21926 0.753598 0.709418 -2.13676 0.790856 
0.712871 -4.13125 0.634874 0.624137 -2.95869 0.603881 1.40363 -0.961347 0.900292 
0.7565 -2.02297 0.844705 0.804279 -4.79494 0.684027 0.637846 -3.64192 0.577258 
0.600742 -2.59267 0.624448 1.12408 -1.60778 0.939994 1.57495 0.56372 0.472756 
1.00645 -5.89049 0.819174 1.11246 -6.52934 0.910025 1.54316 -0.312721 0.694191 
0.599726 -2.32502 0.677652 0.833667 -1.96894 0.875132 0.707812 -4.30917 0.612748 
0.577635 -3.17721 0.55067 1.29072 -1.2477 0.833708 0.92369 -5.49095 0.753759 
1.56786 0.0472522 0.521109 0.624496 -2.17387 0.744226 0.536294 -2.7738 0.564909 
0.617518 -3.80314 0.556891 0.966884 -1.85096 0.868898 0.821441 -5.00106 0.678478 
1.08462 -6.46173 0.888367 1.20362 -7.22481 1.02912 1.54811 0.693252 0.326467 
1.39329 -0.874271 0.70177 0.517451 -2.46422 0.618599 0.6912 -2.09973 0.807848 
0.542991 -3.32161 0.531951 0.709984 -4.45915 0.605479 0.980444 -5.9185 0.796625 
1.1017 -1.62114 0.806526 1.45793 -0.487038 0.559857 1.28635 -7.81251 1.20114 
1.1439 -6.96275 0.977802 1.54298 0.199089 0.382419 0.527191 -2.26199 0.70005 
0.489544 -2.89765 0.548963 0.604279 -3.91593 0.551489 0.85094 -5.26441 0.694902 
0.797458 -2.02384 0.838051 1.51135 0.791856 0.206902 1.22945 -1.2566 0.702439 
1.00549 -6.2209 0.839178 0.460384 -2.55512 0.609197 0.716064 -4.60382 0.606114 
0.516643 -3.41097 0.532166 0.57368 -2.15474 0.787161 0.937963 -1.83359 0.817161 
1.25082 -7.69583 1.18763 1.38716 -0.59986 0.529657 1.38265 -8.32512 1.5178 
0.855006 -5.4372 0.709086 1.49371 0.169861 0.326966 0.591027 -3.98689 0.547305 
0.454403 -2.97169 0.557689 0.458904 -2.308 0.702041 1.13142 -7.08481 1.02897 
0.667689 -2.07503 0.853143 1.47044 0.856872 0.129746 1.12856 -1.38454 0.717055 
0.703695 -4.68153 0.602855 0.985927 -6.32299 0.867619 0.490298 -3.44936 0.53294 
0.419406 -2.60903 0.627477 0.492781 -2.14903 0.808111 0.825166 -1.89372 0.860021 
1.30821 -0.698757 0.543142 1.29178 -7.99703 1.3966 1.4794 -8.58398 1.96379 
0.829219 -5.50603 0.719239 1.42771 0.0781622 0.33349 0.565545 -4.00779 0.536774 
0.421287 -3 0.568844 0.412156 -2.32279 0.730452 1.12788 -7.25032 1.13384 
1.42688 0.896379 0.0919615 0.57648 -2.04178 0.896831 1.01668 -1.48804 0.777798 
1.41162 -8.40527 1.89589 0.672279 -4.72051 0.599936 0.958997 -6.40835 0.918628 
0.455033 -3.44261 0.523958 0.383784 -2.62748 0.649651 0.437099 -2.11236 0.846338 
1.19106 -0.886248 0.625538 0.710791 -1.89129 0.926304 1.25755 -7.91298 1.53815 
1.40244 0.367229 0.260228 1.62299 -8.63909 2.6698 0.794736 -5.58178 0.74825 
0.52567 -4.00722 0.522748 0.381635 -2.98753 0.568193 0.374638 -2.31799 0.760252 
0.871347 -1.58985 0.876319 1.08106 -7.18396 1.21933 0.499538 -1.96745 0.943046 
1.27368 -0.362314 0.494707 1.3682 0.919345 0.0878706 1.47846 -8.40918 2.3717 
0.62982 -4.76683 0.608583 0.407472 -3.41336 0.504972 0.916051 -6.42893 0.994002 
0.344742 -2.61731 0.658963 1.00434 -1.17097 0.778674 0.391463 -2.07119 0.877313 
0.598728 -1.82679 0.987648 1.2367 -7.82753 1.7329 1.31506 0.255125 0.332312 
1.79775 -8.52851 3.43699 0.47456 -4.01355 0.513282 0.748388 -5.62848 0.799618 
0.331557 -2.95175 0.552171 1.11776 -0.646128 0.640015 0.336498 -2.30439 0.774563 
0.433809 -1.88365 0.973308 0.715685 -1.60607 0.965604 1.05441 -7.17407 1.39728 
1.3018 0.920566 0.114231 1.40844 -8.14046 2.41472 1.67796 -8.39564 3.26466 
0.577832 -4.80809 0.63522 0.349406 -3.38652 0.482989 0.297469 -2.59069 0.649527 
0.880431 -6.45557 1.12534 0.348667 -2.03681 0.890393 0.839809 -1.25541 0.878999 
0.49951 -1.72374 1.02195 1.15628 -0.217617 0.531009 1.21595 -7.66562 1.99847 
1.23219 0.399647 0.331008 1.98165 -8.30773 4.23443 0.415972 -4.02998 0.516877 
0.27175 -2.91305 0.526119 0.704459 -5.67245 0.889209 0.293015 -2.28533 0.769613 
0.376494 -1.81304 0.982502 0.58649 -1.52836 1.00648 0.925755 -0.841362 0.76442 
1.03401 -7.10041 1.63255 1.21142 0.90033 0.1586 1.48425 -8.05625 2.91566 
0.285487 -3.37443 0.468112 0.52639 -4.85223 0.689251 0.241597 -2.55857 0.625964 
0.305056 -2.01056 0.886223 1.79523 -8.24661 3.88537 0.85358 -6.44087 1.30694 
1.02857 -0.267353 0.584567 0.419448 -1.62003 1.02852 0.674618 -1.24961 0.929375 
1.26267 -7.6099 2.41609 1.10448 0.329707 0.386582 2.07339 -8.03494 4.79083 
0.358195 -4.05804 0.540797 0.206929 -2.88606 0.500802 0.669032 -5.69218 1.01814 
0.243506 -2.26365 0.750812 0.326329 -1.76206 0.977514 0.47407 -1.42392 1.01088 
1.05676 -7.07398 1.95952 0.780793 -0.833515 0.787195 1.5604 -7.9671 3.38805 
1.10393 0.859233 0.194401 0.223977 -3.3826 0.468867 0.48223 -4.88203 0.771197 
0.181474 -2.53301 0.598563 0.883024 -0.302648 0.602369 0.260527 -1.99027 0.872275 
0.856359 -6.44068 1.55013 1.85631 -8.0781 4.33756 0.35359 -1.5402 1.02093 
0.548399 -1.16484 0.92175 1.3212 -7.55912 2.82403 0.962626 0.275326 0.401226 
2.07296 -7.73939 5.059 0.308759 -4.08823 0.586855 0.146067 -2.88143 0.486559 
0.652262 -5.70137 1.18281 0.191739 -2.24639 0.727235 1.09599 -7.04653 2.29253 
0.281754 -1.73126 0.967281 0.638303 -0.795817 0.76986 0.390113 -1.32392 0.997055 
1.6119 -7.88444 3.76685 0.978154 0.798545 0.205627 0.452551 -4.90211 0.877902 
0.173831 -3.40839 0.489016 0.869506 -6.41261 1.78944 0.126069 -2.52636 0.577766 
0.731944 -0.314601 0.579666 0.217054 -1.97918 0.855085 1.36775 -7.52493 3.15809 
0.303415 -1.4866 1.01363 1.84795 -7.88425 4.57356 0.440078 -1.07454 0.896046 
0.808957 0.222447 0.378712 0.647614 -5.68854 1.35537 0.273812 -4.11931 0.651923 
1.11692 -6.9988 2.531 0.0996588 -2.90356 0.489505 2.03036 -7.44849 5.08413 
0.14488 -2.24452 0.70634 0.243913 -1.71658 0.958649 0.506031 -0.7444 0.731511 
1.61437 -7.78403 3.98487 0.325427 -1.25125 0.986404 0.836591 0.721137 0.186883 
1.3507 -7.4373 3.27429 0.88091 -6.37862 1.99007 0.435818 -4.9107 0.995128 
0.141751 -3.45039 0.526893 0.581467 -0.317856 0.533439 0.0861643 -2.54787 0.570166 
0.179161 -1.98151 0.838968 0.265148 -1.46167 1.01241 0.352308 -0.999812 0.874712 
1.78503 -7.69822 4.58714 0.649237 0.16681 0.330712 1.52539 -7.64568 3.88203 
1.11497 -6.95091 2.679 0.649485 -5.67896 1.51443 0.253665 -4.15241 0.727581 
0.075749 -2.9541 0.510385 0.111652 -2.26593 0.692952 0.390675 -0.695769 0.695458 
1.99363 -7.16787 4.97105 0.212586 -1.72078 0.950388 0.278512 -1.21276 0.988628 
0.685275 0.631734 0.143362 1.62178 -7.62811 4.24984 1.30803 -7.34984 3.30209 
0.884942 -6.3681 2.14033 0.429346 -4.92941 1.10969 0.44123 -0.318805 0.484444 
0.128995 -3.50997 0.577374 0.0700884 -2.60086 0.578056 0.151059 -2.00342 0.823617 
0.287144 -0.954142 0.872836 0.236364 -1.4639 1.01485 1.76872 -7.44075 4.57921 
0.49299 0.110137 0.274446 1.09619 -6.92724 2.75733 1.42886 -7.51391 3.75442 
0.652344 -5.70059 1.64457 0.246613 -4.20416 0.806236 0.0765308 -3.03409 0.546646 
0.0986395 -2.31498 0.688502 0.299399 -0.662668 0.681191 0.187965 -1.74419 0.938172 
0.246599 -1.2087 1.00259 1.97916 -6.86083 4.80095 0.533431 0.536583 0.0882132 
1.53369 -7.50783 4.09037 0.877075 -6.39311 2.23189 1.24642 -7.27611 3.25908 
0.42933 -4.98244 1.21023 0.322078 -0.32316 0.454169 0.13346 -3.59777 0.63631 
0.0804592 -2.68583 0.601017 0.136621 -2.04668 0.808695 0.244218 -0.943591 0.893703 
0.21407 -1.48889 1.01296 1.70132 -7.27657 4.36308 0.351752 0.0535743 0.231141 
1.34182 -7.42307 3.61975 1.05602 -6.91772 2.75659 0.649715 -5.76392 1.73133 
0.249911 -4.29305 0.882379 0.0986709 -3.14737 0.596353 0.108814 -2.39102 0.694496 
0.236508 -0.655396 0.698985 0.170658 -1.78419 0.918468 0.224855 -1.23372 1.0179 
0.392575 0.44133 0.0393531 1.98156 -6.58922 4.67535 1.44449 -7.4067 3.87288 
1.17063 -7.2224 3.15579 0.850886 -6.44011 2.25133 0.233356 -0.338872 0.459617 
0.43074 -5.0809 1.28534 0.151498 -3.72488 0.702771 0.113876 -2.80145 0.639654 
0.138594 -2.1093 0.79645 0.218787 -0.966755 0.927867 0.195347 -1.52981 0.998387 
1.65699 -7.11172 4.175 0.237991 -0.00453966 0.222226 1.24266 -7.35067 3.41482 
0.994631 -6.91422 2.68095 0.634338 -5.85897 1.76026 0.260902 -4.42955 0.951578 
0.136069 -3.29675 0.661253 0.140493 -2.49087 0.714676 0.200161 -0.679223 0.74492 
0.161933 -1.8365 0.891998 0.207096 -1.27876 1.02095 0.274664 0.350171 0.0144359 
1.97512 -6.34928 4.61908 1.36668 -7.31025 3.64999 1.07305 -7.17322 2.97306 
0.803393 -6.49338 2.19678 0.428046 -5.22058 1.32336 0.178523 -0.374182 0.505282 
0.180468 -3.89688 0.778402 0.163056 -2.9458 0.698184 0.157522 -2.18759 0.793096 
0.202584 -1.01686 0.958285 0.178662 -1.5793 0.967836 0.187823 0.265101 0.0235757 
0.18813 -1.33317 1.002 0.163418 -1.89709 0.865688 0.18795 -2.61118 0.756467 
0.183916 -3.48258 0.746851 1.14245 -7.29279 3.17784 0.907184 -6.90014 2.52428 
0.276619 -4.61275 1.00815 0.60192 -5.96954 1.72514 1.62163 -6.92999 4.04271 
0.182291 -0.735461 0.803961 0.161075 -0.0683176 0.260417 0.164795 -1.63107 0.926363 
0.186527 -1.08218 0.967557 0.191189 -2.27887 0.809395 0.221007 -3.11661 0.784968 
0.218865 -4.11204 0.863589 0.152874 -0.442605 0.586075 0.415997 -5.38796 1.31594 
0.730541 -6.53171 2.06582 0.963126 -7.13539 2.73933 1.30079 -7.19562 3.45598 
1.93774 -6.10257 4.60459 0.127751 0.178042 0.070078 0.165841 -1.38703 0.960802 
0.176388 -1.96346 0.852843 0.170817 -0.815279 0.852009 0.244169 -2.75005 0.831104 
0.240165 -3.70109 0.858195 0.292603 -4.83236 1.04438 0.548037 -6.0729 1.62374 
0.799489 -6.8828 2.30587 1.0483 -7.23128 2.94216 0.122841 -0.16439 0.35778 
1.58135 -6.70649 3.97671 0.15661 -1.68133 0.887915 0.164076 -1.14904 0.946405 
0.235255 -2.38255 0.859992 0.284207 -3.31106 0.908669 0.263388 -4.35996 0.952344 
0.389744 -5.56301 1.25925 0.143564 -0.539896 0.673455 0.63465 -6.55287 1.8715 
0.849931 -7.10351 2.48417 1.24512 -7.03398 3.32266 1.86137 -5.80777 4.5664 
0.0924815 0.0792565 0.15711 0.142032 -1.4335 0.908661 0.200656 -2.03594 0.871572 
0.154057 -0.901889 0.867474 0.304434 -2.90735 0.95053 0.303063 -3.94369 0.992643 
0.30161 -5.06632 1.05056 0.473781 -6.15884 1.46679 0.679959 -6.86807 2.05076 
0.965732 -7.13815 2.74319 0.111253 -0.270769 0.46629 1.5259 -6.40609 3.9582 
0.157504 -1.73035 0.873132 0.13372 -1.205 0.899406 0.285291 -2.50099 0.960222 
0.351598 -3.5238 1.07012 0.3061 -4.62078 1.0305 0.133739 -0.642497 0.728559 
0.346542 -5.72246 1.15617 0.742267 -7.05856 2.24007 0.523565 -6.56769 1.63825 
1.19658 -6.79103 3.27203 0.0796297 -0.0317319 0.268818 1.75178 -5.45851 4.43182 
0.121564 -1.47035 0.866876 0.234283 -2.11885 0.941034 0.125773 -0.975765 0.844165 
0.366993 -3.08156 1.11887 0.365875 -4.1935 1.1331 0.296679 -5.28711 1.02073 
0.383449 -6.21967 1.27075 0.895717 -6.97867 2.61103 0.561638 -6.85818 1.79731 
0.106119 -0.384731 0.553342 1.45388 -5.99524 3.93053 0.16947 -1.78314 0.905104 
0.0992119 -1.24339 0.845402 0.338474 -2.63668 1.11814 0.418784 -3.74117 1.25201 
0.335349 -4.86467 1.07987 0.112369 -0.736451 0.739074 0.288165 -5.84733 1.01796 
0.407219 -6.57685 1.39267 0.659721 -6.96717 2.07408 1.14189 -6.46155 3.26783 
0.0767372 -0.152644 0.374204 0.109891 -1.50194 0.861748 0.274524 -2.21791 1.07395 
1.6174 -5.07854 4.15361 0.086718 -1.02842 0.796196 0.429124 -3.26317 1.32103 
0.414806 -4.42139 1.24988 0.274569 -5.4651 0.956195 0.285264 -6.25574 1.05776 
0.457945 -6.82301 1.58557 0.880207 -6.65 2.68053 0.0921835 -0.496182 0.597325 
1.26007 -5.77621 3.61336 0.0673903 -1.26688 0.81197 0.192111 -1.84805 1.00181 
0.392046 -2.7844 1.32263 0.473141 -3.93611 1.41721 0.0762307 -0.810403 0.711265 
0.341336 -5.0565 1.08709 0.220727 -5.92424 0.861532 0.297438 -6.56993 1.166 
0.611242 -6.76751 2.03403 0.0685237 -0.276428 0.443947 0.110607 -1.53825 0.916895 
0.901105 -6.19061 2.86922 0.0427719 -1.0584 0.74937 0.31784 -2.33287 1.26485 
0.480821 -3.42656 1.51723 1.48589 -4.74767 3.7937 0.434646 -4.59054 1.31338 
0.377105 -6.7165 1.45037 0.237988 -5.57512 0.866301 0.189134 -6.26286 0.85129 
0.0619781 -0.592477 0.594965 0.0454199 -1.2847 0.827574 1.17145 -5.3421 3.41495 
0.222301 -1.92997 1.16499 0.576464 -6.44438 2.07709 0.437987 -2.92171 1.53524 
0.0289087 -0.857802 0.666393 0.49722 -4.07132 1.52276 0.201311 -6.51309 0.980491 
0.321778 -5.16606 1.05002 0.152881 -5.94602 0.705945 0.0444207 -0.391665 0.465375 
0.817149 -5.77741 2.77127 0.123336 -1.58831 1.04186 0.00272688 -1.07165 0.734778 
0.356729 -2.44591 1.47975 0.307335 -6.49694 1.374 0.505257 -3.53288 1.65597 
0.102687 -6.22432 0.670351 0.418124 -4.67171 1.30849 0.194301 -5.60369 0.764909 
1.34353 -4.42987 3.34898 0.0159312 -0.662822 0.561456 0.495425 -6.05609 2.01839 
0.0373496 -1.30852 0.91009 0.252448 -2.01742 1.36771 1.06479 -4.94167 3.08966 
0.117947 -6.36342 0.841427 0.461092 -3.0081 1.69999 -0.0211257 -0.879399 0.634984 
0.480023 -4.11693 1.542 0.0917779 -5.90768 0.566479 0.28309 -5.17962 0.976818 
0.00188746 -0.48532 0.447465 0.724496 -5.34412 2.57712 -0.0253826 -1.07955 0.77733 
0.228811 -6.15676 1.30405 0.141809 -1.64848 1.21908 0.376935 -2.51652 1.66158 
0.489312 -3.55158 1.70045 0.0282867 -6.11067 0.525657 0.371717 -4.65301 1.24159 
0.150905 -5.55181 0.66211 1.19316 -4.1253 2.85311 -0.0389123 -0.702015 0.526505 
0.407906 -5.6003 1.91451 0.0409064 -1.34274 1.05291 0.267586 -2.07062 1.55348 
-0.0636139 -0.882949 0.645393 0.0426951 -6.08474 0.746598 0.954492 -4.55234 2.67743 
0.448104 -3.01169 1.77259 0.425808 -4.06514 1.47751 0.0372454 -5.80027 0.445513 
0.238192 -5.10055 0.88253 0.638989 -4.89795 2.29734 -0.0535911 -0.548688 0.419883 
0.149725 -5.70007 1.2439 -0.0381295 -1.09392 0.88283 0.148847 -1.67866 1.39185 
0.366544 -2.51397 1.76127 0.433649 -3.47377 1.64742 -0.0384577 -5.8828 0.422321 
0.312523 -4.54551 1.13372 0.111645 -5.4243 0.560921 1.03607 -3.82373 2.32943 
-0.091232 -0.714286 0.527111 0.321805 -5.10388 1.73048 -0.0904806 -0.887074 0.71432 
0.258313 -2.06515 1.67272 0.0360021 -1.34231 1.19411 0.396284 -2.91889 1.74168 
-0.0232642 -5.63831 0.717281 0.352597 -3.93109 1.35481 0.197829 -4.94853 0.777443 
-0.0162607 -5.59791 0.336393 0.841168 -4.15925 2.18993 0.559344 -4.47763 1.94108 
-0.109498 -0.583982 0.429333 0.0906698 -5.09681 1.19799 0.138836 -1.66711 1.51602 
0.320454 -2.4178 1.75905 0.353272 -3.31696 1.52065 -0.0580271 -1.05374 0.969641 
0.258806 -4.37297 1.00757 -0.104861 -5.50176 0.35012 0.0709173 -5.22432 0.449859 
0.87329 -3.51442 1.79336 -0.121348 -0.77724 0.665357 0.312801 -4.47307 1.51028 
0.217177 -1.97267 1.69743 0.316636 -2.74664 1.6257 0.0227611 -1.31597 1.30174 
0.282257 -3.74298 1.20395 -0.0902267 -5.07238 0.674288 0.162693 -4.74145 0.659363 
-0.0802778 -5.27336 0.223524 0.650996 -3.92166 1.66449 -0.144282 -0.605413 0.506473 
-0.0783541 -0.99605 1.01915 0.247319 -2.24429 1.66703 0.0464892 -4.50869 1.02097 
0.100522 -1.57563 1.55283 0.270137 -3.11202 1.35345 0.217848 -4.16158 0.870488 
0.0184779 -4.94201 0.313962 -0.178913 -4.97431 0.282509 0.730327 -3.2382 1.33306 
-0.132031 -0.779752 0.780624 0.325726 -3.98524 1.19884 0.153846 -1.81454 1.63757 
-0.0160888 -1.20951 1.31422 0.228064 -2.52757 1.45566 0.228763 -3.52807 1.04357 
0.122151 -4.48711 0.512349 -0.145578 -4.45784 0.562672 -0.158779 -4.82446 0.0952725 
0.561787 -3.56617 1.20411 0.0506527 -1.44826 1.52562 0.161889 -2.02389 1.50978 
-0.157784 -0.636123 0.660518 0.0714909 -3.93192 0.757753 0.20258 -2.89091 1.17151 
0.18319 -3.92357 0.715426 -0.0547398 -4.57111 0.140923 -0.107321 -0.897324 1.03256 
-0.256258 -4.40175 0.161437 0.584424 -2.95193 0.876371 0.373218 -3.44057 0.779958 
-0.0438626 -1.13684 1.33311 0.0803735 -1.61872 1.51042 0.149758 -2.29752 1.25905 
0.190931 -3.29948 0.874737 0.0664693 -4.18029 0.327829 -0.180303 -3.92866 0.322509 
-0.250937 -4.29616 -0.0658806 -0.00368384 -1.30311 1.44474 -0.156356 -0.667672 0.815652 
0.0807527 -1.79168 1.31061 0.0632912 -3.49406 0.372057 0.155493 -2.66477 0.984727 
0.142451 -3.65865 0.530934 -0.142407 -4.1294 -0.0622051 -0.11568 -0.87704 1.11681 
-0.324373 -3.85694 -0.0471864 0.463209 -2.7136 0.50758 -0.0773253 -1.04743 1.31266 
0.299365 -3.08734 0.353243 0.00593469 -1.40113 1.32362 0.0913355 -2.0639 1.05549 
-0.00544939 -3.82184 0.108689 -0.338936 -3.78488 -0.277796 0.157115 -3.06151 0.68619 
-0.179885 -3.44129 -0.0183077 -0.0653642 -1.11368 1.29004 -0.158136 -0.680108 0.94464 
0.013009 -1.54301 1.09399 -0.379267 -3.41528 -0.35297 -0.231959 -3.66273 -0.291076 
0.0871655 -3.3679 0.309336 0.121594 -2.44007 0.788873 -0.139878 -0.810796 1.13407 
0.106342 -3.00065 -0.0372033 0.336088 -2.47223 0.132166 -0.124025 -0.897907 1.20688 
-0.0662283 -1.136 1.10296 -0.214441 -3.0861 -0.397633 -0.414351 -3.33078 -0.549345 
-0.0911134 -3.42823 -0.143512 0.0520055 -1.83909 0.850305 0.116513 -2.81705 0.469887 
-0.1361 -0.844179 1.07582 -0.179295 -0.629333 0.980721 0.228814 -2.28448 -0.174788 
0.0196096 -2.71974 -0.410771 -0.431083 -3.03821 -0.711366 -0.0345713 -1.30266 0.879537 
-0.325627 -3.20381 -0.563591 0.018469 -3.05353 0.0600316 0.0908735 -2.2274 0.577398 
-0.176649 -0.687736 1.04936 -0.2813 -2.77403 -0.791588 -0.120942 -0.874519 0.887708 
-0.181126 -3.0304 -0.414705 -0.485526 -2.90718 -0.888036 0.027416 -1.65402 0.639494 
0.0662679 -2.55472 0.236875 -0.189294 -0.597412 0.893068 0.115196 -2.11054 -0.487965 
-0.0834305 -2.46358 -0.769154 -0.212229 -0.504022 0.890497 -0.0556871 -1.1352 0.66908 
-0.0515195 -2.72831 -0.185968 -0.414353 -2.79178 -0.870499 -0.450274 -2.64425 -1.10486 
0.055075 -2.00578 0.353431 -0.139092 -0.722079 0.689382 -0.25504 -2.66358 -0.666422 
-0.534293 -2.53793 -1.24827 0.0106806 -2.28157 0.00239714 -0.254078 -2.34978 -1.12557 
0.00431482 -1.46522 0.425835 -0.197009 -0.471984 0.68706 -0.229135 -0.372751 0.731019 
-0.0100193 -1.95631 -0.814485 -0.470327 -2.45364 -1.1435 -0.117933 -2.41205 -0.420408 
-0.0708927 -0.961244 0.466673 0.0144429 -1.77044 0.130979 -0.416403 -2.25825 -1.41559 
-0.14968 -0.553323 0.485828 -0.324418 -2.32218 -0.919847 -0.557311 -2.24951 -1.51039 
-0.134254 -1.83594 -1.11434 -0.0436869 -2.00982 -0.2164 -0.212607 -0.296677 0.518915 
-0.0203861 -1.26344 0.226159 -0.181794 -2.11761 -0.644035 -0.518342 -2.12257 -1.42251 
-0.464876 -2.0135 -1.62859 -0.0892436 -0.751737 0.296758 -0.0256317 -1.5329 -0.0728083 
-0.257075 -1.73842 -1.3829 -0.160562 -0.369966 0.327958 -0.390088 -1.99544 -1.172 
-0.554251 -1.90755 -1.73826 -0.0978642 -1.77028 -0.42698 -0.0472749 -1.00338 0.102102 
-0.242909 -1.83657 -0.852886 -0.396231 -1.63279 -1.64589 -0.542182 -1.78208 -1.65657 
-0.0990372 -0.566654 0.151383 -0.0457495 -1.19065 -0.113332 -0.0801425 -1.41195 -0.356269 
-0.441556 -1.67973 -1.39073 -0.164631 -1.53055 -0.663429 -0.495772 -1.53106 -1.77941 
-0.0616398 -0.810972 -0.0359427 -0.304897 -1.56257 -1.05366 -0.510841 -1.43001 -1.70016 
-0.0689519 -1.05076 -0.270495 -0.413358 -1.35043 -1.3768 -0.127876 -1.21503 -0.548794 
-0.247557 -1.29718 -0.915164 
