# vtk DataFile Version 3.0
vtk output
ASCII
DATASET POLYDATA
POINTS 724 float
10.3225 -10.6641 11.2477 10.5501 -11.6698 11.1503 10.1245 -9.57295 11.4561 
10.7915 -12.551 11.1281 9.99396 -8.6155 11.7582 10.3042 -10.0363 11.7133 
11.0446 -13.3113 11.1635 9.91928 -7.74126 12.1612 10.5043 -10.8981 11.6726 
10.181 -9.183 11.996 10.7139 -11.6863 11.6748 10.9268 -12.4369 11.6489 
11.2746 -13.8961 11.2506 10.0864 -8.38022 12.3088 9.90399 -6.94032 12.6541 
10.4003 -9.99123 12.1361 11.1325 -12.9501 11.7788 10.6183 -10.8704 12.1557 
10.0384 -7.6199 12.7103 10.271 -9.0683 12.4631 11.4942 -14.372 11.3896 
9.9507 -6.14843 13.2435 10.8654 -11.7731 12.1774 11.3536 -13.4877 11.8684 
10.0303 -6.84557 13.1757 10.1866 -8.21254 12.8414 10.4669 -9.83196 12.5775 
11.1144 -12.48 12.3167 11.7037 -14.7584 11.5827 10.6723 -10.6685 12.6204 
10.0337 -5.48722 13.7945 10.1473 -7.36178 13.2961 10.3489 -8.8736 12.9526 
11.571 -13.9379 12.0005 10.1195 -6.38054 13.7286 10.8901 -11.442 12.7093 
11.3664 -13.1061 12.4441 10.5227 -9.59579 13.0452 10.2785 -7.9665 13.3777 
10.153 -4.82853 14.4144 11.9093 -15.0776 11.838 11.7878 -14.3546 12.1482 
11.1263 -12.1473 12.8565 10.1852 -5.65587 14.2463 10.7067 -10.3487 13.1235 
10.2423 -7.0304 13.8326 10.4243 -8.61085 13.4627 11.6283 -13.678 12.5617 
10.9116 -11.0888 13.2459 10.2711 -6.22501 14.3177 10.3697 -7.66438 13.9117 
10.582 -9.29347 13.5519 11.3859 -12.8305 12.9835 12.0812 -15.2986 12.1061 
10.292 -4.96331 14.8365 10.3018 -4.20955 15.105 11.9274 -14.395 12.5166 
10.7547 -10.0067 13.654 11.1451 -11.8284 13.3959 10.3707 -6.79308 14.3977 
10.5078 -8.30607 13.9943 11.6806 -13.5336 13.0252 10.3527 -5.43389 14.8895 
12.1344 -14.7789 12.667 10.9516 -10.7378 13.7931 10.6583 -8.9719 14.0896 
10.4826 -7.38415 14.4688 11.4162 -12.5977 13.5042 10.419 -5.93225 14.932 
10.437 -4.50389 15.4679 10.4529 -3.69724 15.7748 12.2673 -15.4876 12.4553 
11.9181 -14.0013 13.1078 10.8253 -9.66357 14.2088 11.1822 -11.5136 13.9396 
10.6102 -8.00254 14.5503 10.5002 -6.47231 14.9774 10.493 -5.00278 15.5066 
11.6824 -13.2135 13.6184 12.1385 -14.3845 13.2307 10.6 -3.23225 16.4327 
10.5827 -4.12786 16.081 12.3327 -14.9624 13.0461 11.0163 -10.39 14.3548 
10.7544 -8.64954 14.6532 10.6001 -7.0518 15.035 10.5494 -5.53965 15.5142 
11.4366 -12.2482 14.0862 12.449 -15.6192 12.8584 11.9488 -13.7325 13.7277 
10.6292 -4.68914 16.0757 10.9171 -9.32399 14.7826 10.6228 -6.10036 15.5364 
10.7204 -7.66771 15.1154 11.2354 -11.1359 14.52 11.7153 -12.925 14.2161 
10.7185 -3.50069 16.7493 12.2493 -14.3345 13.6992 10.775 -2.66392 17.2493 
10.679 -5.2256 16.0629 12.4842 -14.9538 13.5209 10.7172 -6.69295 15.5866 
10.8613 -8.31022 15.2262 11.1025 -10.0226 14.9406 10.7418 -3.99384 16.6854 
11.4887 -11.9017 14.6759 12.6122 -15.6904 13.2755 12.035 -13.6187 14.2446 
10.747 -5.77459 16.0746 10.7687 -4.47892 16.6346 10.8342 -7.31298 15.674 
11.023 -8.97245 15.3677 11.3166 -10.7642 15.1086 11.7871 -12.7021 14.7677 
12.3507 -14.2541 14.1843 10.8771 -3.13857 17.4385 10.9422 -2.07952 18.0695 
10.8103 -4.9685 16.6027 12.608 -14.8663 14.0305 10.837 -6.34722 16.1287 
10.9745 -7.95607 15.7971 11.2069 -9.66389 15.5297 10.8833 -3.72407 17.2857 
12.7582 -15.7159 13.6938 11.5673 -11.573 15.2474 12.1054 -13.4288 14.7837 
11.041 -2.38651 18.3042 10.8733 -5.4652 16.617 10.8993 -4.22858 17.1865 
10.9511 -6.95475 16.2253 11.1377 -8.62091 15.9475 11.4166 -10.4074 15.6885 
12.4086 -14.0426 14.7377 11.8492 -12.3735 15.3382 11.026 -2.97011 18.0532 
12.783 -15.0884 14.3067 11.1525 -1.32749 19.0979 10.9393 -4.67457 17.16 
10.9579 -6.00212 16.6728 11.0915 -7.59684 16.3583 11.3216 -9.31407 16.1079 
12.1407 -13.078 15.376 11.0145 -3.52335 17.8441 11.6529 -11.184 15.8267 
12.6448 -14.4496 14.7923 12.9185 -15.7019 14.2091 11.2154 -1.86596 19.1314 
10.9977 -5.13675 17.1711 11.0689 -6.59079 16.7725 11.0336 -3.94526 17.7728 
11.2564 -8.26725 16.5135 12.4067 -13.6069 15.417 11.5249 -10.031 16.2654 
11.9118 -11.9458 15.9314 11.155 -2.69878 18.6383 12.8934 -14.9262 14.8766 
11.3745 -0.577458 20.101 11.078 -5.64659 17.2221 11.0696 -4.35634 17.7395 
11.2091 -7.2289 16.9088 12.6643 -14.0909 15.4285 11.4402 -8.95244 16.6767 
11.7479 -10.7618 16.408 12.1782 -12.6129 16.0135 11.1545 -3.17206 18.4883 
13.0592 -15.6521 14.7182 11.3173 -1.86021 19.5157 11.4573 -0.921503 20.292 
11.1235 -4.79468 17.7393 11.186 -6.21882 17.3171 11.3753 -7.89886 17.068 
11.1704 -3.58479 18.3963 11.6397 -9.64391 16.8367 12.4485 -13.211 16.0573 
11.989 -11.4766 16.5305 12.8692 -14.4139 15.5456 11.307 -2.33542 19.3341 
13.0586 -14.9798 15.367 11.6242 0.265926 21.1736 11.1996 -5.28521 17.7792 
11.3258 -6.85004 17.4521 11.2022 -3.99378 18.3398 11.5607 -8.57794 17.2356 
11.8548 -10.3373 16.9862 12.2458 -12.1679 16.6174 12.6939 -13.6633 16.1342 
11.3039 -2.7654 19.1738 13.2005 -15.5621 15.297 11.4958 -1.30766 20.3329 
11.3053 -5.84439 17.8648 11.2523 -4.42876 18.3206 11.4941 -7.51832 17.6141 
11.7602 -9.25558 17.4013 11.677 -0.242412 21.2412 11.3147 -3.17937 19.0459 
12.9544 -14.2222 16.0926 12.0867 -11.0399 17.11 12.5019 -12.7655 16.6931 
11.4758 -1.80805 20.1122 13.1632 -14.8036 15.9631 11.828 1.08104 22.0898 
11.3265 -4.91611 18.3445 11.4449 -6.46887 17.995 11.3419 -3.59905 18.9563 
11.6828 -8.19773 17.7872 11.9731 -9.93952 17.5527 12.33 -11.7188 17.2073 
11.4639 -2.27475 19.8944 12.7721 -13.3908 16.6928 11.6798 -0.751097 21.1336 
13.3193 -15.4449 15.8591 11.4315 -5.471 18.419 11.3893 -4.04817 18.9098 
11.6152 -7.13719 18.1571 13.0309 -14.0036 16.6319 11.8859 -8.87919 17.9569 
11.4683 -2.72418 19.7132 11.8663 0.434852 22.0725 12.1987 -10.628 17.6796 
12.5883 -12.4216 17.2427 11.6502 -1.28993 20.8666 13.2515 -14.6283 16.5137 
11.9883 1.88006 22.8398 11.4635 -4.54333 18.9169 11.5716 -6.09444 18.5419 
11.4902 -3.18412 19.5746 11.8083 -7.82444 18.3328 11.6312 -1.79462 20.597 
12.1 -9.56378 18.1113 12.8507 -13.1116 17.219 12.4375 -11.3517 17.7542 
11.8547 -0.189029 21.8759 13.4181 -15.3027 16.4038 11.5368 -3.65773 19.5012 
11.5699 -5.10391 18.9798 11.6281 -2.29875 20.3511 11.7439 -6.76772 18.7003 
13.104 -13.7783 17.1449 12.0162 -8.51658 18.5052 11.8204 -0.798234 21.5627 
12.3247 -10.2753 18.2279 12.0235 1.11295 22.7749 12.6843 -12.0941 17.7678 
13.326 -14.4387 17.0363 11.6494 -2.78237 20.1836 11.6133 -4.17059 19.4923 
11.7919 -1.39991 21.2106 11.7116 -5.73412 19.0939 12.1312 2.65719 23.4505 
11.9406 -7.46497 18.8741 12.2343 -9.22294 18.6556 12.9331 -12.8281 17.7261 
12.0092 0.352459 22.5139 12.5565 -11.0167 18.2886 13.4991 -15.1364 16.9308 
11.9617 -0.466456 22.0757 11.7939 -1.91381 20.9573 11.6972 -3.27528 20.0908 
11.7236 -4.74641 19.5445 13.1744 -13.5349 17.6456 11.8856 -6.41575 19.245 
12.1529 -8.17554 19.0427 12.4589 -9.95049 18.7665 12.7902 -11.7777 18.2868 
12.1579 1.72718 23.3382 13.3909 -14.2252 17.546 12.112 0.544259 22.8512 
11.9521 -1.04618 21.7737 11.819 -2.40342 20.7812 11.777 -3.80814 20.0685 
11.8689 -5.39011 19.6504 12.0837 -7.12492 19.4107 13.022 -12.5349 18.2331 
12.2777 3.39718 23.9652 12.3738 -8.89941 19.1892 12.6851 -10.701 18.8211 
13.5663 -14.9454 17.4436 12.2286 1.56436 23.4744 12.1074 -0.123584 22.5661 
11.965 -1.55141 21.5407 11.8693 -2.90949 20.6764 13.2469 -13.269 18.1486 
11.8928 -4.40359 20.1122 12.044 -6.08247 19.7915 12.2968 -7.84755 19.5715 
12.9068 -11.4672 18.8134 12.5988 -9.63896 19.2989 12.321 2.74968 23.9894 
13.4527 -13.9839 18.0561 12.1157 -0.680521 22.316 12.2446 0.893779 23.2774 
11.9958 -2.04465 21.3657 11.9526 -3.46171 20.644 12.043 -5.06295 20.2104 
12.2402 -6.79813 19.9455 13.1215 -12.2329 18.7543 12.5179 -8.58211 19.7132 
12.8213 -10.3948 19.3562 12.4589 4.17964 24.5004 13.6247 -14.7303 17.9474 
12.3564 2.07764 23.9087 12.1376 -1.19281 22.1008 12.2592 0.278222 23.0521 
12.0497 -2.56325 21.2549 13.3278 -12.9821 18.6684 12.0743 -4.07723 20.6817 
12.2191 -5.76261 20.3414 12.4494 -7.52472 20.0947 13.0337 -11.1611 19.3523 
12.7421 -9.33015 19.8243 12.4764 3.34162 24.454 13.5184 -13.7127 18.5828 
12.3792 1.38485 23.7211 12.2789 -0.28977 22.8296 12.1751 -1.69984 21.9308 
12.1368 -3.13422 21.2173 12.2303 -4.7496 20.7745 12.411 -6.47815 20.4819 
13.2338 -11.9269 19.2964 12.6663 -8.26294 20.2297 12.9615 -10.0904 19.8898 
13.6793 -14.493 18.4474 12.649 4.87258 25.0243 12.4897 2.5776 24.3154 
12.4048 0.739935 23.5113 12.3086 -0.828201 22.6288 13.4219 -12.6801 19.215 
12.2348 -2.23512 21.8219 12.2642 -3.76757 21.253 12.4077 -5.45119 20.897 
12.6121 -7.2006 20.6174 13.1675 -10.8567 19.8994 12.8862 -9.01488 20.3409 
12.6409 3.91259 24.9095 13.5951 -13.4141 19.1413 12.5098 1.86333 24.1236 
12.4349 0.133438 23.3045 12.3537 -1.36133 22.4696 12.3275 -2.82477 21.787 
12.4257 -4.44795 21.3447 12.5944 -6.15935 21.0245 13.3566 -11.6195 19.857 
12.8193 -7.93503 20.7412 13.1009 -9.77744 20.4165 13.7345 -14.2391 18.9432 
12.841 5.49349 25.564 12.6308 3.07493 24.7175 12.5416 1.19877 23.9239 
12.4737 -0.446816 23.1189 12.4216 -1.9201 22.3712 13.5297 -12.3702 19.7896 
12.4604 -3.4724 21.8282 12.605 -5.14425 21.4617 12.7843 -6.87029 21.144 
13.3011 -10.5422 20.445 13.0292 -8.68396 20.8488 13.7917 -13.9785 19.4261 
13.2354 -9.44408 20.9323 12.9766 -7.59225 21.2534 12.7865 -5.83773 21.5783 
12.6264 -4.15471 21.9244 12.6406 2.32769 24.5058 12.5818 0.564259 23.7341 
12.5222 -2.52893 22.3502 12.528 -1.01869 22.9757 12.8144 4.46538 25.3833 
13.4818 -11.2968 20.4271 13.6876 -13.0973 19.7405 13.1707 -8.33011 21.3527 
13.4286 -10.204 20.9814 12.9639 -6.52946 21.6824 12.8062 -4.83912 22.0408 
12.6615 -3.18682 22.4071 13.6425 -12.0299 20.3883 12.6061 -1.609 22.8974 
12.6315 -0.0531117 23.569 12.6728 1.645 24.3064 12.7829 3.57007 25.1337 
13.0262 6.07598 26.109 13.8563 -13.6946 19.932 13.3634 -9.08163 21.4391 
13.1383 -7.2312 21.7752 13.602 -10.9456 20.996 12.9825 -5.51133 22.1498 
12.8309 -3.86589 22.516 12.7174 -2.23811 22.9017 12.6961 -0.666397 23.4487 
12.721 0.993822 24.1303 12.7776 2.78375 24.8888 13.7865 -12.7164 20.3835 
12.9937 5.01829 25.8847 13.3123 -7.95076 21.8619 13.5465 -9.83177 21.506 
13.1481 -6.1774 22.2409 13.0094 -4.53311 22.6385 12.865 -2.9045 22.9855 
[...]
POINT_DATA 724
VECTORS velocity double
1.03848 -1.58263 1.18905 1.2117 -1.22837 1.29809 0.877869 -2.13403 0.991678 
1.38005 -0.946164 1.30245 0.751576 -2.81099 0.784345 0.926654 -2.07051 1.03135 
1.52254 -0.651912 1.21453 0.645195 -3.58055 0.590411 1.06154 -1.73075 1.1614 
0.797375 -2.63996 0.839651 1.20738 -1.50026 1.22905 1.36664 -1.25306 1.23528 
1.61561 -0.374724 1.07998 0.690434 -3.29173 0.658764 0.564148 -4.37554 0.428024 
0.877478 -2.30138 0.941695 1.47349 -1.11152 1.16404 1.00361 -1.97845 1.05876 
0.602075 -4.01209 0.498911 0.735257 -2.9381 0.732177 1.67143 -0.120384 0.924178 
0.512826 -5.17304 0.30056 1.17231 -1.73323 1.12527 1.58201 -0.865898 1.05246 
0.538687 -4.7652 0.370851 0.627461 -3.66859 0.551438 0.795904 -2.5637 0.823313 
1.31487 -1.57775 1.08512 1.69787 0.0973654 0.763754 0.897344 -2.24179 0.929128 
0.49062 -5.80066 0.22733 0.550224 -4.46813 0.41085 0.657604 -3.24937 0.618642 
1.65715 -0.616266 0.911869 0.509914 -5.31579 0.306133 1.01669 -2.05973 0.985228 
1.45268 -1.34857 0.988084 0.700098 -2.83684 0.701924 0.56506 -4.03112 0.463703 
0.47482 -6.40274 0.190443 1.70195 0.279851 0.603531 1.70487 -0.338666 0.754852 
1.14705 -1.93032 0.97556 0.49558 -5.9529 0.251971 0.765783 -2.51587 0.791045 
0.514985 -4.8725 0.359819 0.581878 -3.5573 0.526298 1.57302 -1.01976 0.847554 
0.853342 -2.3256 0.856303 0.49915 -5.58135 0.302677 0.518193 -4.35962 0.414058 
0.605905 -3.1102 0.601662 1.30283 -1.71277 0.911327 1.69094 0.405956 0.473403 
0.487688 -6.54689 0.231481 0.462848 -6.97741 0.205369 1.6935 -0.401373 0.657506 
0.645646 -2.75286 0.686452 0.975865 -2.19336 0.883918 0.496166 -5.11612 0.353739 
0.522203 -3.83487 0.475421 1.48317 -1.286 0.790438 0.496566 -6.25001 0.272927 
1.70778 -0.0819055 0.507807 0.710058 -2.51789 0.768441 0.531371 -3.3436 0.54963 
0.490286 -4.58712 0.408711 1.15443 -1.9742 0.859653 0.49699 -5.84134 0.317796 
0.491126 -6.98383 0.264151 0.470223 -7.43527 0.275897 1.66618 0.513905 0.34433 
1.57902 -0.909476 0.663731 0.552944 -2.93586 0.638267 0.822714 -2.3598 0.833996 
0.484292 -4.03817 0.472749 0.490618 -5.33941 0.368991 0.501599 -6.61714 0.29828 
1.31234 -1.66093 0.781668 1.62877 -0.5566 0.538814 0.502963 -7.7549 0.403599 
0.508466 -7.30399 0.330564 1.68102 0.0414916 0.389613 0.599752 -2.63975 0.73773 
0.482332 -3.5143 0.551325 0.479163 -4.77721 0.428544 0.501831 -6.12136 0.338345 
0.975407 -2.18847 0.853315 1.63047 0.590829 0.240015 1.43878 -1.26273 0.675261 
0.512149 -6.83624 0.344532 0.491563 -3.06062 0.647649 0.494031 -5.55078 0.389336 
0.46568 -4.19328 0.500081 0.686251 -2.44745 0.831722 1.14882 -1.89453 0.815781 
0.54127 -7.68547 0.456601 1.56669 -0.656551 0.518666 0.568076 -7.91933 0.663809 
0.508353 -6.28926 0.370527 1.63423 0.00385324 0.346608 0.478548 -4.93253 0.45373 
0.455428 -3.6347 0.587466 0.522024 -2.7099 0.75907 0.534678 -7.34318 0.422074 
0.82579 -2.27357 0.893269 1.58888 0.636949 0.174984 1.34299 -1.38134 0.705183 
0.498072 -5.68161 0.413347 0.523533 -6.88725 0.407072 0.458833 -4.30692 0.533573 
0.455336 -3.14249 0.692372 0.589088 -2.459 0.873298 1.02502 -1.97227 0.882716 
1.49185 -0.742881 0.544479 0.587276 -7.74623 0.645591 0.644065 -7.83033 1.06229 
0.512903 -6.3514 0.412295 1.57052 -0.082895 0.364026 0.479063 -5.03603 0.475032 
0.441526 -3.71492 0.630342 0.47391 -2.73846 0.811488 0.556492 -7.36988 0.538591 
1.54306 0.661889 0.147846 0.713394 -2.25731 0.95995 1.2274 -1.48451 0.786699 
0.656978 -7.73048 1.06076 0.498094 -5.75843 0.439477 0.53126 -6.90216 0.483565 
0.45406 -4.38216 0.557134 0.433745 -3.18806 0.742749 0.523544 -2.42819 0.931817 
1.37893 -0.904894 0.641365 0.887487 -1.99646 0.975765 0.609506 -7.5724 0.829299 
1.52979 0.161706 0.313258 0.784829 -7.53626 1.73502 0.51292 -6.3931 0.46568 
0.474586 -5.10918 0.489559 0.430282 -3.76216 0.659203 0.44232 -2.74383 0.863946 
1.06672 -1.60338 0.911284 0.563367 -7.24638 0.666983 0.614738 -2.19424 1.02496 
1.43215 -0.452046 0.532238 1.48008 0.674536 0.157536 0.737039 -7.50136 1.52553 
0.491435 -5.81672 0.471232 0.44421 -4.43636 0.565437 0.532417 -6.8515 0.590218 
0.415592 -3.21059 0.775925 1.19123 -1.16411 0.813987 0.473441 -2.39195 0.979113 
0.744369 -1.96062 1.05835 0.625936 -7.38933 1.05467 1.44096 0.0682606 0.400491 
1.04467 -7.31454 2.48076 0.462142 -5.17005 0.502313 0.506383 -6.38875 0.543135 
0.414311 -3.79374 0.666406 1.28058 -0.684893 0.689612 0.415184 -2.7455 0.895625 
0.531832 -2.11963 1.06644 0.880949 -1.6542 1.02331 0.572113 -7.11834 0.871568 
1.40859 0.675109 0.199434 0.746462 -7.31523 1.64125 0.997925 -7.31384 2.3627 
0.477793 -5.8435 0.520377 0.426011 -4.48512 0.563833 0.393423 -3.22705 0.783851 
0.532792 -6.77673 0.748625 0.43123 -2.36624 1.00305 1.00745 -1.25603 0.931505 
0.615655 -1.88122 1.10231 1.29508 -0.316573 0.601618 0.657978 -7.15953 1.36554 
1.34589 0.20291 0.422533 1.38805 -7.25298 3.24264 0.441961 -5.21345 0.525322 
0.39029 -3.82515 0.656838 0.498646 -6.35741 0.659551 0.386177 -2.75075 0.902352 
0.464017 -2.05933 1.08054 0.719098 -1.60882 1.07317 1.07945 -0.852477 0.825551 
0.593719 -6.94738 1.14385 1.31229 0.665688 0.262231 0.894128 -7.19716 2.13708 
0.399975 -4.52904 0.564983 0.462174 -5.84661 0.599257 0.364242 -3.24607 0.771938 
0.39199 -2.35437 1.0055 1.25137 -7.32662 2.95306 0.544614 -6.66499 0.965257 
1.15951 -0.345901 0.666955 0.514684 -1.79498 1.10963 0.813676 -1.27696 0.98948 
0.75986 -7.03313 1.792 1.21317 0.160994 0.492622 1.55132 -7.21717 3.72724 
0.419553 -5.2395 0.570332 0.358855 -3.85994 0.643274 0.500643 -6.29582 0.823146 
0.352609 -2.76149 0.891064 0.40898 -2.02006 1.07738 0.578471 -1.53346 1.07731 
0.663205 -6.83329 1.49201 0.916577 -0.849744 0.8542 1.08204 -7.22786 2.59649 
1.19978 0.644952 0.313369 0.371252 -4.56658 0.581206 0.454943 -5.8229 0.71448 
0.32887 -3.27142 0.75216 1.0048 -0.366614 0.69093 0.353622 -2.35356 0.995861 
0.591406 -6.57746 1.23962 1.40255 -7.39558 3.3557 0.435414 -1.73089 1.1002 
0.66214 -1.21778 0.981645 0.912851 -7.03965 2.20217 1.06682 0.132935 0.51575 
1.54916 -7.09727 3.91957 0.403947 -5.24644 0.643951 0.32511 -3.89843 0.638446 
0.528473 -6.23584 1.02747 0.315528 -2.77982 0.872298 0.78194 -6.81507 1.84291 
0.362603 -2.00331 1.06876 0.755859 -0.825963 0.83817 0.475428 -1.45305 1.05959 
1.23799 -7.34744 2.9529 1.07067 0.610452 0.334706 0.467945 -5.79305 0.862431 
0.348449 -4.59586 0.619554 0.676112 -6.54132 1.51486 0.292462 -3.30614 0.736223 
0.844173 -0.372948 0.670831 0.316058 -2.366 0.982108 1.06893 -7.15943 2.53639 
0.376968 -1.69001 1.09155 1.42124 -7.39581 3.54226 0.532922 -1.15058 0.952902 
0.90979 0.103265 0.497028 0.589005 -6.20434 1.24592 0.404978 -5.24685 0.743683 
0.90881 -6.88401 2.11131 0.297326 -3.94081 0.64996 1.54228 -6.91197 3.93873 
0.279482 -2.8117 0.85421 0.323896 -2.00412 1.0625 0.606474 -0.791868 0.798717 
1.30924 -7.44551 3.15365 0.397247 -1.39594 1.04558 0.927677 0.561599 0.320972 
1.15504 -7.26784 2.68823 0.785894 -6.58498 1.75856 0.507878 -5.78007 1.02755 
0.340366 -4.62453 0.678776 0.683894 -0.376576 0.624619 0.26316 -3.35505 0.730929 
0.282173 -2.3934 0.9687 0.332872 -1.67774 1.09127 0.428406 -1.09476 0.927796 
1.37783 -7.33805 3.55265 0.746892 0.0668382 0.449255 1.29326 -7.4775 3.11558 
1.0226 -7.01166 2.30445 0.677633 -6.23918 1.45547 0.427684 -5.25932 0.85899 
0.283963 -3.99302 0.678169 0.25115 -2.86163 0.841131 0.47504 -0.759887 0.759449 
1.62084 -6.66969 3.91298 0.291717 -2.02669 1.05764 0.340351 -1.37075 1.04676 
0.775911 0.500286 0.278156 1.31071 -7.41834 3.34348 1.21006 -7.37897 2.76822 
0.902097 -6.71168 1.9606 0.572769 -5.8192 1.19335 0.532425 -0.381404 0.572533 
0.350945 -4.66663 0.751655 0.248555 -3.42292 0.737494 0.255432 -2.44162 0.954591 
0.349701 -1.06423 0.922812 0.299636 -1.69435 1.09716 1.4122 -7.09956 3.57625 
0.585436 0.0247148 0.389215 1.11507 -7.17705 2.43868 1.26843 -7.50293 3.06244 
0.780164 -6.3583 1.64168 0.470642 -5.31325 0.978691 0.289033 -4.06523 0.718756 
0.236363 -2.93502 0.833049 0.368556 -0.740775 0.74026 0.265978 -2.072 1.04873 
0.300778 -1.37967 1.06266 1.78947 -6.34769 3.92268 0.622476 0.430443 0.219281 
1.27684 -7.35929 3.25589 1.00554 -6.89873 2.11444 1.23181 -7.47307 2.78976 
0.653108 -5.93382 1.34823 0.399771 -0.391 0.535452 0.37903 -4.74475 0.831442 
0.252458 -3.51624 0.753966 0.23909 -2.51258 0.937684 0.295856 -1.06661 0.942675 
0.273951 -1.73659 1.10004 1.47241 -6.94169 3.49377 0.434779 -0.0219468 0.336966 
1.22888 -7.4906 2.99633 1.17182 -7.3372 2.50706 0.878853 -6.5491 1.79388 
0.52761 -5.43131 1.09658 0.311597 -4.17138 0.768879 0.238191 -3.03359 0.829711 
0.291853 -0.745061 0.753228 0.246907 -2.13741 1.03023 0.273218 -1.41886 1.08233 
0.476554 0.355931 0.161512 1.95427 -6.0495 4.00183 1.27028 -7.27622 3.14722 
1.21462 -7.52069 2.7582 1.08092 -7.10273 2.21013 0.296036 -0.412315 0.531808 
0.736183 -6.12195 1.48464 0.420289 -4.87696 0.917635 0.274047 -3.6396 0.780786 
0.235161 -2.60443 0.918158 0.261859 -1.10234 0.978521 0.25273 -1.7981 1.0896 
1.57008 -6.74096 3.46513 0.307011 -0.0745989 0.314574 1.18654 -7.44802 2.8891 
1.1853 -7.45385 2.51158 0.958562 -6.77634 1.90221 0.591554 -5.61855 1.21176 
0.347937 -4.32101 0.832653 0.256113 -3.15617 0.834358 0.243929 -0.779675 0.796544 
0.235041 -2.21843 1.00071 0.251299 -1.4802 1.09055 0.349207 0.279778 0.123039 
2.05164 -5.79846 4.1275 1.29682 -7.15705 3.05418 1.1676 -7.51819 2.67003 
1.11842 -7.2812 2.24516 0.810451 -6.35951 1.59593 0.22691 -0.454223 0.569564 
0.471496 -5.06931 1.01674 0.309765 -3.79496 0.825438 0.243904 -2.71358 0.901153 
0.239232 -1.16607 1.01247 0.234075 -1.87176 1.06048 0.250152 0.203553 0.117114 
0.22974 -1.55376 1.07587 0.231098 -2.31086 0.965597 0.287214 -3.30045 0.857199 
0.396181 -4.51704 0.922435 1.15794 -7.38082 2.76929 1.15565 -7.50676 2.45242 
0.656475 -5.86137 1.3247 1.00948 -6.99976 1.9609 1.66356 -6.50882 3.49989 
0.217035 -0.847634 0.85544 0.214042 -0.137677 0.338979 0.218069 -1.95165 1.01604 
0.218773 -1.24686 1.02579 0.26409 -2.83708 0.898993 0.357218 -3.98152 0.90426 
0.532034 -5.31469 1.13772 0.189482 -0.531815 0.645579 0.86658 -6.61239 1.67616 
1.11282 -7.40075 2.21785 1.11011 -7.48321 2.54881 1.34646 -6.99069 3.00103 
2.06054 -5.5405 4.2422 0.176819 0.119715 0.149917 0.206209 -1.63044 1.03652 
0.235931 -2.41189 0.938482 0.1989 -0.940607 0.904683 0.329127 -3.46472 0.917202 
0.45797 -4.75462 1.05433 0.717021 -6.13393 1.43314 1.02361 -7.18179 1.96592 
1.09516 -7.50693 2.34591 1.14991 -7.28035 2.66013 0.161397 -0.239339 0.42661 
1.71799 -6.24109 3.58833 0.206686 -2.03419 0.969494 0.19402 -1.33198 1.00825 
0.294529 -2.97374 0.932534 0.418313 -4.19705 1.03864 0.600844 -5.59329 1.28371 
0.896841 -6.84521 1.71967 0.171351 -0.640699 0.730667 1.06626 -7.45352 2.13687 
1.05694 -7.42223 2.41561 1.40286 -6.7612 3.01069 1.99991 -5.20854 4.27472 
0.129116 0.0180224 0.227415 0.181932 -1.7043 0.982545 0.250422 -2.52107 0.941502 
0.177822 -1.04198 0.921966 0.383255 -3.64967 1.03954 0.535456 -5.02113 1.2378 
0.765123 -6.40058 1.52813 0.998029 -7.3011 1.9208 1.01858 -7.47046 2.21044 
1.16284 -7.12442 2.58774 0.139743 -0.355439 0.530801 1.71577 -5.90779 3.6906 
0.202941 -2.11941 0.943334 0.16339 -1.41005 0.963391 0.336318 -3.12622 1.02939 
0.496878 -4.43639 1.24357 0.671137 -5.87409 1.44438 0.155415 -0.755304 0.784575 
0.894275 -7.02525 1.72208 1.01767 -7.32414 2.2923 0.987147 -7.44925 2.01746 
1.44501 -6.45048 3.09465 0.106911 -0.10143 0.335001 1.90743 -4.79569 4.18001 
0.160925 -1.77346 0.935225 0.276252 -2.64235 1.00384 0.147774 -1.13281 0.900945 
0.453895 -3.85617 1.24394 0.623466 -5.29273 1.46091 0.791063 -6.62477 1.59755 
0.933605 -7.34718 1.83233 1.18859 -6.8879 2.57816 0.940107 -7.39953 2.06945 
0.127677 -0.480207 0.6152 1.6674 -5.45917 3.73727 0.210129 -2.2117 0.967692 
0.130012 -1.4751 0.90904 0.393436 -3.29971 1.21387 0.589709 -4.68355 1.50722 
0.728553 -6.11707 1.5946 0.130483 -0.862011 0.794991 0.85557 -7.12949 1.68389 
0.889545 -7.40082 1.87724 1.00847 -7.13495 2.22743 1.44503 -6.07649 3.19978 
0.0975712 -0.233296 0.438608 0.148363 -1.84204 0.924794 0.316835 -2.78329 1.15378 
1.80521 -4.35415 3.95741 0.109334 -1.20621 0.855044 0.540364 -4.07609 1.52212 
0.703411 -5.52958 1.68336 0.785792 -6.77247 1.63046 0.838877 -7.32675 1.71393 
0.877562 -7.2791 1.9518 1.25211 -6.43121 2.74852 0.10912 -0.602149 0.657056 
1.5267 -5.26128 3.51883 0.0999064 -1.53034 0.87391 0.231922 -2.32025 1.07396 
0.467126 -3.49225 1.48428 0.677614 -4.90245 1.77799 0.0934566 -0.95124 0.768565 
0.755558 -6.27987 1.70429 0.782881 -7.14637 1.61165 0.791259 -7.3132 1.73858 
1.03333 -6.81385 2.27006 0.0848429 -0.367512 0.506427 0.149499 -1.92054 0.985116 
1.29122 -5.87633 2.98437 0.067619 -1.26168 0.809448 0.374382 -2.9473 1.39811 
0.625901 -4.27717 1.81864 1.70881 -3.99534 3.6829 0.749762 -5.68403 1.8518 
0.842632 -7.07386 1.89011 0.744722 -6.81747 1.62265 0.729192 -7.25143 1.5835 
0.07673 -0.70979 0.654206 0.0802528 -1.58555 0.89298 1.46507 -4.78923 3.38066 
0.271058 -2.45299 1.27788 1.05618 -6.3889 2.39246 0.544762 -3.67758 1.78906 
0.0474539 -1.01791 0.725804 0.730946 -5.04256 1.9834 0.706798 -7.17203 1.62212 
0.739878 -6.32911 1.75287 0.685366 -7.07735 1.51859 0.0580933 -0.49242 0.526543 
1.23073 -5.46138 2.96048 0.168212 -2.02015 1.13971 0.0306955 -1.30564 0.798076 
0.440425 -3.11503 1.69526 0.823465 -6.76792 1.88637 0.680597 -4.40647 2.04916 
0.620454 -7.12282 1.45889 0.74473 -5.72209 1.92972 0.670359 -6.74882 1.57911 
1.59975 -3.681 3.35712 0.0308272 -0.794507 0.622034 1.01633 -5.98008 2.4328 
0.0772713 -1.65422 0.996338 0.322409 -2.59844 1.5516 1.39575 -4.36865 3.15136 
0.640139 -6.94672 1.54032 0.598509 -3.80123 2.03904 4.48947e-06 -1.06323 0.697509 
0.729037 -5.06762 2.07472 0.577082 -6.93104 1.4197 0.680112 -6.25205 1.73769 
0.0149153 -0.597273 0.509031 1.16086 -5.03259 2.84085 0.00725108 -1.35093 0.854837 
0.791649 -6.37294 1.90427 0.202308 -2.13824 1.37604 0.490456 -3.23305 1.95763 
0.682179 -4.4257 2.1546 0.523553 -6.92143 1.35256 0.687731 -5.63333 1.91526 
0.572761 -6.57679 1.50944 1.47605 -3.40764 2.99906 -0.022401 -0.852491 0.589748 
0.951076 -5.53309 2.41606 0.0924633 -1.74281 1.18644 0.364641 -2.70498 1.81346 
-0.038886 -1.09531 0.71721 0.587737 -6.59595 1.50006 1.32196 -3.97841 2.86855 
0.605351 -3.82198 2.16606 0.672192 -4.97232 2.05227 0.470492 -6.71211 1.32072 
0.588064 -6.05905 1.67353 1.09881 -4.58244 2.64696 -0.0398603 -0.676192 0.48334 
0.74485 -5.88332 1.93305 0.00347696 -1.4129 0.996232 0.23197 -2.22268 1.61876 
0.502322 -3.25994 2.11046 0.629308 -4.32872 2.13294 0.446161 -6.60136 1.27267 
0.594414 -5.43437 1.83414 0.467983 -6.32491 1.42154 1.3381 -3.15964 2.61756 
-0.0720261 -0.889643 0.598222 0.876469 -5.05621 2.30969 -0.0593126 -1.13703 0.810743 
0.378942 -2.73754 1.98758 0.104863 -1.79108 1.38836 0.560522 -3.72813 2.15952 
0.553889 -6.05799 1.52777 0.57799 -4.77639 1.95138 0.4838 -5.78551 1.57812 
0.375998 -6.40923 1.21831 1.23648 -3.60677 2.53713 1.04258 -4.1587 2.39871 
-0.0939131 -0.735327 0.499861 0.695322 -5.25294 1.95463 0.244534 -2.25368 1.79931 
0.467293 -3.1744 2.13114 0.538133 -4.13782 2.02154 -0.00532655 -1.40639 1.12929 
0.488529 -5.15933 1.7176 0.389579 -6.12654 1.22324 0.367955 -6.01592 1.3083 
1.18784 -2.9228 2.21736 -0.0914566 -1.01389 0.771663 0.860392 -4.35708 2.13706 
0.352441 -2.66227 2.03836 0.477009 -3.5424 2.05226 0.110427 -1.80523 1.54977 
0.471082 -4.51348 1.81191 0.509274 -5.43884 1.55236 0.383961 -5.46887 1.45421 
0.294791 -5.9964 1.10229 1.09617 -3.47019 2.18457 -0.123363 -0.791793 0.59934 
-0.0153944 -1.37045 1.21651 0.395468 -2.99906 2.04421 0.647492 -4.64688 1.83209 
0.221999 -2.18077 1.86643 0.432461 -3.88655 1.86514 0.389093 -4.84921 1.57709 
0.275097 -5.64937 1.15539 0.341298 -5.51718 1.19772 1.05162 -2.72198 1.86302 
-0.0892862 -1.06454 0.933596 0.866573 -3.78958 1.89947 0.294983 -2.50728 1.98507 
0.0830487 -1.70754 1.59056 0.375935 -3.29992 1.88859 0.372222 -4.2199 1.65437 
0.291451 -5.12907 1.28573 0.460656 -4.80115 1.50094 0.221513 -5.47359 0.977248 
1.00798 -3.15624 1.85445 0.181404 -2.05949 1.85141 0.303811 -2.76843 1.88748 
-0.122188 -0.882152 0.80434 0.662923 -3.96599 1.61653 0.334011 -3.61065 1.69173 
0.301711 -4.52823 1.40283 0.183576 -5.21623 0.957484 -0.0339185 -1.28503 1.26355 
0.282086 -4.91586 1.13654 0.910802 -2.52235 1.50086 0.8723 -3.15774 1.57088 
0.0687253 -1.65534 1.63313 0.219923 -2.3069 1.85588 0.27855 -3.03721 1.70139 
0.288768 -3.91804 1.47411 0.200864 -4.76137 1.06529 0.424878 -4.24067 1.31548 
0.147312 -4.90179 0.845359 0.130853 -1.91817 1.77237 -0.0998486 -0.979103 1.01687 
0.210833 -2.51871 1.69296 0.645876 -3.47453 1.31723 0.252288 -3.32653 1.5032 
0.22012 -4.19897 1.18261 0.091142 -4.73287 0.737105 -0.0220517 -1.31137 1.38901 
0.224798 -4.36379 0.990484 0.7939 -2.36211 1.20068 0.0456469 -1.58402 1.62422 
0.77973 -2.84958 1.23099 0.137236 -2.07927 1.66698 0.19674 -2.76313 1.50265 
0.10709 -4.3606 0.804383 0.0668948 -4.38895 0.676017 0.215397 -3.61574 1.25639 
0.42225 -3.66879 1.03677 0.0642339 -1.72247 1.61148 -0.07692 -1.05572 1.197 
0.127659 -2.24249 1.48089 0.165324 -3.91187 0.735217 -0.00310095 -4.24831 0.504899 
0.135973 -3.85914 0.914753 0.18501 -3.04383 1.28795 -0.0307327 -1.27638 1.4269 
0.638705 -2.90334 0.962259 0.673288 -2.20673 0.888863 -0.00117325 -1.43321 1.51398 
0.0529133 -1.78789 1.44317 0.374926 -3.29109 0.718593 -0.0188566 -3.94479 0.43471 
0.00790836 -3.93979 0.516256 0.132783 -2.49144 1.28787 0.143966 -3.31492 0.996824 
-0.0186115 -1.41538 1.38425 -0.0807247 -1.04365 1.25635 0.574042 -2.09273 0.629261 
0.53604 -2.68 0.637423 0.0949355 -3.52133 0.410191 0.0634518 -1.96474 1.26154 
-0.100395 -3.79096 0.24221 0.0475785 -3.50675 0.616616 0.125271 -2.77223 1.04036 
-0.0644984 -1.17014 1.3399 0.284155 -3.00071 0.362519 -0.0144813 -1.48581 1.21852 
-0.0914919 -3.5273 0.219951 -0.0930029 -3.50637 0.12517 0.0833735 -2.24993 1.05136 
0.0714918 -3.00295 0.712 -0.0846667 -1.10676 1.18172 0.471433 -1.99546 0.358671 
0.416355 -2.49262 0.302421 -0.113974 -0.921922 1.15945 0.0232102 -1.74925 1.03566 
-0.037099 -3.14927 0.323317 -0.190666 -3.37805 -0.0545718 0.0640027 -3.04772 0.0366502 
0.0664012 -2.49053 0.766499 -0.0463034 -1.29789 1.01137 -0.177977 -3.14381 -0.0606395 
-0.138007 -3.07549 -0.222266 0.000298463 -2.68214 0.422601 0.254312 -2.50176 -0.0147785 
0.0380274 -1.99581 0.793628 -0.104858 -0.968228 0.970453 -0.140815 -0.785477 0.987387 
0.359862 -1.9212 0.0668993 -0.263508 -3.00914 -0.357415 -0.114764 -2.80016 0.0432945 
-0.0108105 -1.51179 0.797469 0.00880472 -2.19201 0.485302 0.068468 -2.5415 -0.317763 
-0.0730916 -1.06726 0.779128 -0.256257 -2.77551 -0.350273 -0.196271 -2.73051 -0.547558 
0.245657 -1.87406 -0.218451 -0.0647242 -2.35967 0.148368 -0.134815 -0.721868 0.772588 
-0.00410153 -1.72202 0.537158 -0.18508 -2.46837 -0.224615 -0.320849 -2.61376 -0.690619 
-0.0391312 -2.30309 -0.633213 -0.0428691 -1.22891 0.576742 -0.043074 -1.88453 0.218702 
0.122756 -1.84371 -0.500446 -0.0977997 -0.802443 0.57683 -0.322636 -2.40091 -0.653061 
-0.228352 -2.28206 -0.891602 -0.124745 -2.06309 -0.112274 -0.0366981 -1.40274 0.355515 
-0.246498 -2.14049 -0.481317 -0.0434512 -1.8105 -0.83314 -0.347024 -2.16427 -1.01791 
-0.0656817 -0.958677 0.373356 -0.0611696 -1.50269 0.115978 -0.108905 -1.66435 -0.115748 
-0.364761 -2.00738 -0.942782 -0.190099 -1.75406 -0.395827 -0.213534 -1.76135 -1.10613 
-0.0616061 -1.12273 0.152733 -0.298655 -1.80755 -0.734663 -0.341862 -1.67265 -1.22048 
-0.0918231 -1.27286 -0.0935023 -0.356142 -1.55422 -1.06351 -0.155224 -1.37781 -0.355014 
-0.256512 -1.45265 -0.686735 
