# vtk DataFile Version 3.0
vtk output
ASCII
DATASET POLYDATA
POINTS 724 float
10.6709 -11.3101 11.6149 10.9691 -12.1654 11.5642 10.4032 -10.4322 11.7382 
11.2755 -12.9273 11.5459 10.2136 -9.71315 11.9486 10.6084 -10.8698 12.0193 
11.5807 -13.5736 11.5514 10.0838 -9.0931 12.2618 10.8676 -11.5921 12.0343 
10.4271 -10.2259 12.2217 11.1377 -12.2762 12.0646 11.4122 -12.9194 12.0413 
11.8431 -14.0596 11.5939 10.2794 -9.64629 12.4539 10.0174 -8.5443 12.6745 
10.6899 -10.9084 12.4147 11.659 -13.3702 12.1463 10.9666 -11.6519 12.4858 
10.1809 -9.12051 12.7795 10.4948 -10.218 12.6545 12.0816 -14.4502 11.683 
10.0158 -7.99617 13.1976 11.2852 -12.438 12.5344 11.9187 -13.8148 12.1984 
10.1247 -8.58135 13.1776 10.3526 -9.60925 12.9506 10.7286 -10.8451 12.8182 
11.5926 -13.0651 12.6598 12.3 -14.7669 11.826 10.9857 -11.5478 12.9095 
10.0614 -7.51455 13.7113 10.26 -9.01392 13.333 10.5426 -10.1338 13.1066 
12.1617 -14.178 12.2854 10.1821 -8.28586 13.7006 11.2591 -12.229 13.0231 
11.8961 -13.5938 12.7537 10.7493 -10.7097 13.2463 10.4148 -9.4863 13.4564 
10.144 -7.00858 14.3169 12.5074 -15.03 12.0322 12.3934 -14.5043 12.3848 
11.552 -12.8592 13.1677 10.2119 -7.73792 14.1887 10.9733 -11.3337 13.3683 
10.3285 -8.81148 13.8504 10.586 -9.97908 13.5855 12.1987 -14.0464 12.8256 
11.2243 -11.9804 13.5205 10.3197 -8.21113 14.3005 10.4798 -9.29269 13.9739 
10.7714 -10.508 13.7198 11.8716 -13.4407 13.2714 12.6762 -15.2138 12.2609 
10.2864 -7.18792 14.7723 10.2607 -6.51138 15.022 12.532 -14.5647 12.7228 
10.9762 -11.0847 13.8657 11.5142 -12.6404 13.6821 10.4413 -8.64949 14.4224 
10.6417 -9.76973 14.1013 12.2267 -13.9857 13.2724 10.3684 -7.59071 14.8577 
12.7412 -14.8512 12.8292 11.2125 -11.7092 14.0424 10.8167 -10.271 14.2424 
10.5756 -9.08532 14.5366 11.8559 -13.2991 13.7801 10.4567 -7.98555 14.9358 
10.4158 -6.81367 15.4287 10.3966 -6.07409 15.7282 12.855 -15.3729 12.5712 
12.4929 -14.3292 13.3159 11.0106 -10.813 14.4081 11.4979 -12.3948 14.2152 
10.7256 -9.53386 14.6633 10.5608 -8.39027 15.0208 10.4975 -7.23287 15.4987 
12.1771 -13.7889 13.8671 12.7259 -14.6036 13.4019 10.5484 -5.63519 16.4374 
10.5613 -6.48026 16.0786 12.9304 -15.0006 13.174 11.2357 -11.4147 14.5993 
10.8921 -10.0081 14.8136 10.6838 -8.80918 15.1218 10.58 -7.65229 15.5404 
11.8159 -13.0332 14.3677 13.0255 -15.4852 12.9434 12.4826 -14.171 13.9429 
10.6357 -6.94527 16.0996 11.0785 -10.5204 14.9925 10.6792 -8.06767 15.6017 
10.8265 -9.24766 15.2492 11.5005 -12.0614 14.8025 12.1574 -13.5816 14.4833 
10.7006 -5.88355 16.7893 12.8179 -14.5851 13.8669 10.7501 -5.02108 17.3401 
10.7119 -7.35951 16.1164 13.067 -15.0076 13.6377 10.7986 -8.49095 15.6966 
10.9888 -9.70837 15.4102 11.2921 -11.0791 15.2006 10.7427 -6.31948 16.7322 
11.8143 -12.7279 14.9801 13.1751 -15.5469 13.3419 12.5384 -14.0941 14.4751 
10.8063 -7.76214 16.1638 10.789 -6.71565 16.6956 10.9384 -8.92593 15.8333 
11.1719 -10.1975 15.6038 11.5446 -11.7039 15.4144 12.1866 -13.3886 15.0657 
12.8951 -14.5315 14.3649 10.8868 -5.47265 17.5435 10.9506 -4.30986 18.2801 
10.8529 -7.09191 16.685 13.1701 -14.9489 14.1567 10.9212 -8.16606 16.2606 
11.0997 -9.37928 16.0089 11.3796 -10.7335 15.8176 10.9045 -6.00983 17.3786 
13.3056 -15.5688 13.754 11.8506 -12.4037 15.5838 12.5701 -13.9371 15.0484 
11.0759 -4.60646 18.5255 10.9395 -7.45276 16.7286 10.9344 -6.43237 17.2822 
11.058 -8.58695 16.4062 11.2822 -9.86114 16.2124 11.6201 -11.3428 16.0231 
12.9162 -14.368 14.9562 12.1987 -13.0766 15.677 11.0628 -5.21301 18.2226 
13.3283 -15.0996 14.4215 11.2096 -3.37394 19.4983 10.9928 -6.77638 17.2695 
11.0472 -7.8284 16.8219 11.2183 -9.0347 16.5918 11.4856 -10.3871 16.4231 
12.55 -13.6277 15.6908 11.0547 -5.73785 17.9844 11.8979 -12.0041 16.1933 
13.1635 -14.6406 14.9791 13.4441 -15.5543 14.2764 11.2824 -3.9544 19.4836 
11.0713 -7.11376 17.3024 11.1793 -8.23343 16.967 11.0835 -6.09539 17.9081 
11.4002 -9.51593 16.7994 12.8525 -14.01 15.7005 11.7108 -10.9596 16.6231 
12.2071 -12.6501 16.3062 11.2087 -4.84858 18.877 13.4084 -14.9647 15.0259 
11.5343 -2.54481 20.6968 11.1716 -7.47174 17.3839 11.1335 -6.42063 17.8791 
11.3376 -8.67656 17.154 13.1333 -14.3473 15.6737 11.5986 -10.0287 17.0098 
11.9609 -11.5673 16.7941 12.5206 -13.1888 16.3735 11.2096 -5.30264 18.6916 
13.5596 -15.5048 14.8041 11.4023 -3.90613 19.9054 11.6206 -2.93012 20.8592 
11.2035 -6.74858 17.8916 11.2984 -7.86668 17.5187 11.5179 -9.15579 17.3637 
11.2322 -5.66986 18.5811 11.8121 -10.5694 17.2072 12.8301 -13.6449 16.3861 
12.2347 -12.1695 16.9248 13.3377 -14.561 15.766 11.3806 -4.38663 19.6621 
13.5391 -14.9753 15.5307 11.9424 -1.7448 21.9679 11.2961 -7.10002 17.9536 
11.4539 -8.30624 17.7006 11.2746 -6.01037 18.5167 11.7137 -9.66043 17.576 
12.0427 -11.1325 17.38 12.5278 -12.7418 16.998 13.0945 -13.9678 16.4301 
11.3746 -4.80693 19.455 13.6671 -15.415 15.4099 11.6409 -3.32234 20.8494 
11.4176 -7.49209 18.0717 11.3373 -6.35078 18.4994 11.6333 -8.78524 17.9111 
11.9212 -10.1836 17.7758 11.958 -2.31432 21.9594 11.3891 -5.19301 19.293 
13.3759 -14.3739 16.3396 12.2938 -11.7173 17.5086 12.8141 -13.214 17.0444 
11.5899 -3.81002 20.5506 13.5979 -14.8062 16.1558 12.2311 -0.977362 23.0127 
11.425 -6.71344 18.5356 11.5699 -7.93214 18.2436 11.4237 -5.56222 19.1809 
11.829 -9.29 18.1278 12.1418 -10.7304 17.9471 12.5593 -12.2823 17.5907 
11.5631 -4.26088 20.2668 13.1153 -13.6954 17.0008 11.9102 -2.82082 21.766 
13.7471 -15.2989 15.9946 11.5425 -7.11414 18.6341 11.4808 -5.9334 19.1231 
11.7486 -8.4156 18.4517 13.399 -14.1587 16.8899 12.0361 -9.81425 18.3311 
11.564 -4.68635 20.0331 12.2281 -1.71609 22.8983 12.3763 -11.2956 18.0759 
12.8452 -12.8601 17.5923 11.8305 -3.32307 21.4072 13.6362 -14.6339 16.7179 
12.4009 -0.172638 23.8155 11.5653 -6.31964 19.1312 11.6922 -7.56369 18.7922 
11.588 -5.10526 19.8545 11.9459 -8.92978 18.6708 11.7804 -3.78881 21.0568 
12.2529 -10.3575 18.5046 13.1372 -13.4124 17.5228 12.628 -11.8999 18.1318 
12.164 -2.35024 22.6029 13.8018 -15.1612 16.5506 11.64 -5.51319 19.7555 
11.6807 -6.74107 19.2082 11.7605 -4.25331 20.7404 11.87 -8.05949 18.9931 
13.417 -13.9343 17.3978 12.1556 -9.46413 18.8778 12.0746 -2.9171 22.1895 
12.4806 -10.938 18.6221 12.4099 -1.06806 23.6545 12.8938 -12.5199 18.1079 
13.6577 -14.449 17.2366 11.7753 -4.69139 20.5192 11.7228 -5.93135 19.7351 
11.9999 -3.454 21.7384 11.8285 -7.21069 19.3498 12.5525 0.641047 24.443 
12.0691 -8.58804 19.2094 12.3739 -10.0251 19.0492 13.1667 -13.1233 18.0171 
12.3662 -1.87733 23.3004 12.7175 -11.5551 18.6616 13.8347 -15.0038 17.0758 
12.2663 -2.66361 22.7485 11.976 -3.91086 21.4075 11.8212 -5.1226 20.3878 
11.8381 -6.3832 19.7905 13.4325 -13.6926 17.8838 12.0053 -7.72531 19.5382 
12.2818 -9.14134 19.414 12.5982 -10.6169 19.162 12.961 -12.1936 18.6182 
12.5398 -0.449959 24.2285 13.668 -14.2435 17.7314 12.4803 -1.7215 23.6377 
12.2181 -3.1872 22.3559 11.9849 -4.34375 21.169 11.9009 -5.57024 20.3415 
11.9854 -6.88084 19.915 12.204 -8.27199 19.744 13.2085 -12.8255 18.5106 
12.7493 1.44212 24.9768 12.502 -9.7181 19.584 12.8241 -11.2387 19.195 
13.8513 -14.8264 17.5756 12.6038 -0.661928 24.3209 12.4533 -2.39355 23.2717 
12.2023 -3.63121 22.0452 12.0235 -4.78415 21.0147 13.4525 -13.43 18.3692 
12.0159 -6.05439 20.3772 12.1602 -7.41794 20.0867 12.4166 -8.83959 19.9406 
13.0477 -11.8802 19.1428 12.725 -10.319 19.6985 12.7236 0.64144 24.9034 
13.6752 -14.013 18.2215 12.4348 -2.918 22.9445 12.6227 -1.39854 24.0634 
12.2087 -4.05905 21.8022 12.0974 -5.2537 20.9465 12.1634 -6.58106 20.4846 
12.355 -7.97811 20.2763 13.2689 -12.5228 19.0244 12.6364 -9.42633 20.1077 
12.9442 -10.9425 19.7366 13.024 2.31301 25.5641 13.8583 -14.6284 18.0599 
12.7295 -0.136759 24.7453 12.4281 -3.37685 22.6549 12.635 -2.04662 23.7794 
12.2402 -4.50467 21.6331 13.4863 -13.1484 18.8752 12.2106 -5.76519 20.9654 
12.3358 -7.13601 20.6387 12.5624 -8.55182 20.459 13.1531 -11.5812 19.6884 
12.8579 -10.0334 20.2275 12.9199 1.2727 25.3729 13.6888 -13.7554 18.7292 
12.7564 -0.906705 24.5027 12.6401 -2.61154 23.494 12.4355 -3.81721 22.4144 
12.307 -4.98967 21.5496 12.3583 -6.3137 21.0585 12.5239 -7.70123 20.8087 
13.3517 -12.2232 19.5696 12.7769 -9.14092 20.6194 13.0727 -10.6588 20.2787 
13.8635 -14.4107 18.5393 13.2976 3.07716 26.1706 12.8711 0.382695 25.1405 
12.793 -1.60744 24.2465 12.645 -3.11567 23.2261 13.5421 -12.8559 19.4182 
12.4636 -4.27466 22.2412 12.4167 -5.51977 21.5573 12.5284 -6.87652 21.1966 
12.721 -8.27099 20.9733 13.2724 -11.2947 20.2481 12.9932 -9.74937 20.7425 
13.1414 1.8995 25.8585 13.7197 -13.4731 19.2771 12.8813 -0.4152 24.8912 
12.8225 -2.24263 23.9908 12.6575 -3.59113 22.9987 12.5256 -4.7733 22.1534 
12.5642 -6.07819 21.6417 12.7087 -7.43534 21.3467 13.4547 -11.9318 20.1439 
12.9237 -8.85343 21.1206 13.2027 -10.3748 20.81 13.8741 -14.1782 19.0194 
13.5325 3.74173 26.7966 13.0346 0.911946 25.5405 12.9264 -1.14551 24.6514 
12.8445 -2.81768 23.7497 12.6879 -4.07397 22.8353 13.6227 -12.5626 20.0031 
12.6321 -5.31356 22.1606 12.7327 -6.63494 21.7674 12.8918 -7.99068 21.4893 
13.3958 -11.0082 20.8062 13.1283 -9.45543 21.2416 13.8953 -13.9403 19.4965 
13.3285 -10.0764 21.3225 13.0766 -8.55604 21.6182 12.905 -7.17479 21.8996 
12.7787 -5.86887 22.2449 13.01 0.0690231 25.2586 12.9771 -1.8314 24.4248 
12.7501 -4.58948 22.7601 12.8683 -3.35194 23.5465 13.3683 2.51439 26.3888 
13.5677 -11.637 20.7335 13.7769 -13.1774 19.8806 13.2628 -9.14249 21.7298 
13.5146 -10.705 21.3483 13.0726 -7.70495 22.0196 12.9447 -6.40608 22.3649 
12.8568 -5.13429 22.7832 13.7192 -12.2517 20.6256 12.9069 -3.87727 23.4096 
13.0212 -2.47483 24.219 13.0462 -0.683483 25.0173 13.2202 1.4556 25.9729 
13.7177 4.37387 27.3981 13.9319 -13.6832 20.0094 13.4475 -9.75205 21.8168 
13.2359 -8.24398 22.1256 13.6794 -11.3229 21.3192 13.1089 -6.91563 22.4827 
13.0032 -5.67653 22.8811 12.9769 -4.41655 23.3675 13.062 -3.07951 24.0531 
13.1083 -1.39558 24.8112 13.1531 0.554374 25.6332 13.8539 -12.8323 20.5496 
13.5799 3.13029 26.9602 13.3983 -8.80661 22.2206 13.6231 -10.3712 21.8682 
13.2612 -7.41173 22.5813 13.1654 -6.18417 23.0057 13.0906 -4.9655 23.4275 
[...]
POINT_DATA 724
VECTORS velocity double
1.04147 -2.35408 0.97595 1.30169 -1.80097 1.15714 0.772896 -3.05957 0.653599 
1.52841 -1.35179 1.18401 0.53962 -3.77024 0.309669 0.884012 -2.9785 0.763067 
1.69994 -0.950182 1.09818 0.315364 -4.47994 -0.0276128 1.11463 -2.49132 0.974956 
0.657281 -3.6337 0.469866 1.33976 -2.08927 1.08254 1.55356 -1.67881 1.09782 
1.801 -0.62914 0.969052 0.441455 -4.27984 0.1709 0.0932356 -5.15772 -0.331198 
0.847725 -3.24383 0.69077 1.69458 -1.43809 1.02335 1.08589 -2.76335 0.889474 
0.226305 -4.92581 -0.11562 0.586071 -3.96478 0.375495 1.85762 -0.368398 0.82751 
-0.139134 -5.78831 -0.584441 1.35513 -2.29957 0.990958 1.81674 -1.12153 0.914083 
0.00376325 -5.54597 -0.37666 0.342295 -4.67005 0.0685116 0.76206 -3.5486 0.583876 
1.56504 -1.96343 0.953167 1.88437 -0.165311 0.688196 0.983051 -3.08254 0.773905 
-0.338172 -6.21459 -0.719732 0.0978749 -5.35736 -0.212095 0.482349 -4.30078 0.268023 
1.89348 -0.846492 0.786912 -0.15876 -5.98717 -0.478732 1.2065 -2.70581 0.87064 
1.73477 -1.60262 0.85389 0.645183 -3.86724 0.469135 0.224084 -5.02516 -0.0204361 
-0.543463 -6.51111 -0.747818 1.8908 -0.00946146 0.553661 1.93457 -0.579646 0.655107 
1.41923 -2.37184 0.869587 -0.359001 -6.38363 -0.584233 0.83099 -3.43619 0.646713 
-0.0291727 -5.70151 -0.266831 0.362809 -4.62121 0.177195 1.85621 -1.21514 0.724439 
1.03121 -3.06699 0.765535 -0.239568 -6.18512 -0.400973 0.108642 -5.32198 -0.0626528 
0.512778 -4.18055 0.372961 1.6215 -1.97337 0.799619 1.88362 0.0880312 0.446894 
-0.547933 -6.62681 -0.578197 -0.7328 -6.65738 -0.644955 1.93969 -0.63787 0.57054 
0.677221 -3.746 0.554549 1.25254 -2.70967 0.811556 -0.111 -5.88271 -0.209578 
0.249955 -4.89116 0.138781 1.79953 -1.45302 0.681375 -0.436038 -6.51256 -0.431819 
1.93837 -0.369797 0.456331 0.861621 -3.35178 0.703948 0.395326 -4.43262 0.338572 
0.0272813 -5.50114 -0.0147986 1.49464 -2.25706 0.779087 -0.311001 -6.29738 -0.272536 
-0.653118 -6.69089 -0.43223 -0.839442 -6.64756 -0.464236 1.86408 0.160076 0.342863 
1.87487 -1.08523 0.575261 0.548093 -3.97688 0.532247 1.0862 -2.96027 0.800992 
0.170071 -5.06352 0.185507 -0.17226 -5.99182 -0.0968456 -0.514461 -6.5659 -0.28817 
1.66309 -1.81798 0.699628 1.90097 -0.782329 0.479751 -0.843632 -6.48662 -0.257665 
-0.675549 -6.62362 -0.252181 1.91051 -0.287491 0.368248 0.719945 -3.54454 0.71092 
0.314224 -4.59221 0.390387 -0.0246211 -5.60815 0.0935567 -0.364297 -6.34356 -0.136229 
1.31461 -2.54344 0.821024 1.83291 0.198162 0.261105 1.76885 -1.39897 0.607964 
-0.516033 -6.49071 -0.1223 0.461 -4.11378 0.59529 -0.206001 -6.03727 0.0339032 
0.126131 -5.16112 0.297043 0.918697 -3.14053 0.851118 1.51236 -2.06892 0.778188 
-0.68083 -6.4359 -0.097077 1.84937 -0.874638 0.480295 -0.729054 -6.05435 0.0198387 
-0.359305 -6.28019 0.0129771 1.86856 -0.343561 0.345391 -0.0432884 -5.65174 0.224471 
0.274384 -4.67509 0.508342 0.615899 -3.65435 0.79088 -0.566117 -6.41757 -0.0359437 
1.14488 -2.7072 0.923852 1.79329 0.208345 0.214627 1.68143 -1.50286 0.671691 
-0.195237 -5.99416 0.168936 -0.44359 -6.31206 0.0483929 0.117227 -5.20075 0.431389 
0.417823 -4.17811 0.718816 0.792374 -3.21401 0.957778 1.38276 -2.16856 0.90035 
1.77894 -0.951005 0.533364 -0.545226 -6.09256 0.113337 -0.57696 -5.39496 0.342048 
-0.304366 -6.13731 0.154404 1.80789 -0.431992 0.384249 -0.0288299 -5.63125 0.349347 
0.270187 -4.70647 0.645048 0.559433 -3.68949 0.916536 -0.456234 -6.1547 0.130273 
1.74638 0.203959 0.204548 1.00491 -2.7537 1.05752 1.56582 -1.59612 0.799234 
-0.434939 -5.44479 0.398122 -0.152798 -5.89138 0.286956 -0.355622 -6.0959 0.18477 
0.134876 -5.19633 0.54939 0.410515 -4.19478 0.851995 0.709284 -3.2163 1.08094 
1.67136 -1.07918 0.666988 1.22347 -2.24385 1.05763 -0.390266 -5.72643 0.309314 
1.74819 -0.245902 0.367144 -0.412954 -4.60901 0.780022 -0.234274 -5.95753 0.268602 
0.00571725 -5.56782 0.446829 0.288148 -4.70774 0.756359 0.536392 -3.68809 1.03576 
1.39648 -1.72336 0.98029 -0.338055 -5.85221 0.281967 0.874056 -2.75807 1.18122 
1.68562 -0.719892 0.584776 1.67837 0.193979 0.238023 -0.312538 -4.90287 0.696697 
-0.0989526 -5.75449 0.377186 0.164707 -5.16485 0.630415 -0.258303 -5.82676 0.313173 
0.420984 -4.19438 0.951616 1.48866 -1.28743 0.889997 0.65135 -3.20566 1.17806 
1.04447 -2.29168 1.19617 -0.295205 -5.35992 0.486851 1.65518 -0.317262 0.489124 
-0.0726204 -4.35099 1.15473 0.0464027 -5.47629 0.513744 -0.158128 -5.73725 0.36993 
0.312152 -4.69794 0.82402 1.53832 -0.883811 0.783191 0.526973 -3.68758 1.11553 
0.764168 -2.75048 1.26096 1.18477 -1.82897 1.14323 -0.245308 -5.48749 0.444817 
1.59921 0.190502 0.309532 -0.220613 -4.83502 0.785025 -0.00934014 -4.60469 1.09713 
-0.0417374 -5.58533 0.452513 0.194466 -5.11641 0.676988 0.432866 -4.19906 1.0058 
-0.177455 -5.52192 0.442908 0.610007 -3.20568 1.23349 1.28954 -1.37941 1.04841 
0.877308 -2.31135 1.27327 1.52123 -0.590693 0.721284 -0.206296 -5.00617 0.686469 
1.54258 -0.193797 0.555905 0.520268 -4.6073 1.53196 0.0863019 -5.36001 0.564422 
0.330847 -4.68571 0.855291 -0.0915349 -5.49215 0.469734 0.519704 -3.70184 1.15437 
0.679579 -2.75147 1.29518 0.988101 -1.86785 1.21963 1.33014 -1.00662 0.95626 
-0.16836 -5.13545 0.619381 1.493 0.198761 0.411367 -0.020172 -4.75671 1.01111 
0.219245 -5.05292 0.706327 0.00919344 -5.39797 0.525425 0.437784 -4.21371 1.02656 
0.577113 -3.22371 1.25619 0.42555 -4.91432 1.369 -0.108527 -5.21878 0.582596 
1.37495 -0.590901 0.818963 0.74722 -2.31328 1.29405 1.0705 -1.44825 1.12779 
-0.0747183 -4.83851 0.886808 1.40067 -0.195677 0.664014 0.883026 -4.86284 1.80977 
0.122386 -5.23105 0.613018 0.340858 -4.67049 0.869144 -0.0325229 -5.24813 0.576806 
0.507804 -3.73264 1.16784 0.616145 -2.7648 1.30343 0.814506 -1.88969 1.23419 
-0.0728408 -4.92549 0.788171 1.15012 -1.01204 1.00289 0.284832 -5.01481 1.20804 
1.37168 0.212286 0.498865 0.239216 -4.98325 0.733764 0.0576105 -5.21524 0.603734 
0.433003 -4.2368 1.03229 1.21031 -0.592406 0.863286 0.546504 -3.25899 1.26425 
-0.0310903 -5.01031 0.718631 0.760067 -5.25022 1.59551 0.64763 -2.32454 1.29084 
0.892921 -1.45184 1.12711 0.151128 -4.99501 1.05174 1.24741 -0.188288 0.712889 
0.969885 -4.92645 1.94993 0.157926 -5.11022 0.666373 0.34431 -4.65783 0.88085 
0.0327479 -5.07121 0.680686 0.488862 -3.77941 1.17202 0.0919937 -4.98317 0.926014 
0.564401 -2.79772 1.30656 0.972819 -1.01555 0.99511 0.685942 -1.88595 1.21875 
0.589777 -5.38605 1.39431 1.23659 0.219323 0.548038 0.111477 -5.08371 0.680248 
0.258984 -4.92646 0.765488 0.0904623 -5.00225 0.827407 0.421061 -4.27174 1.03583 
1.0413 -0.59397 0.854732 0.51421 -3.31595 1.27035 0.417995 -5.34658 1.20278 
0.573607 -2.34096 1.28795 0.907386 -5.38179 1.73547 0.739862 -1.44937 1.10008 
1.08675 -0.189056 0.709978 0.127651 -5.03872 0.766964 0.198707 -5.03476 0.718382 
0.296615 -5.24809 1.03228 0.346432 -4.66355 0.895547 1.04227 -4.91592 2.0462 
0.464675 -3.84724 1.17455 0.519566 -2.84847 1.31574 0.806985 -1.01914 0.958824 
0.806052 -5.64676 1.54282 0.585966 -1.89093 1.20619 1.09111 0.212582 0.55274 
0.619531 -5.66965 1.30691 0.25693 -5.20056 0.91511 0.184582 -5.06229 0.743655 
0.283512 -4.91367 0.795826 0.873122 -0.603195 0.814253 0.407454 -4.33125 1.03963 
0.480979 -3.39693 1.2773 0.5146 -2.38005 1.29773 0.612538 -1.45172 1.07409 
0.93852 -5.40273 1.79573 0.921972 -0.203159 0.670786 0.885544 -5.80777 1.5735 
0.507236 -5.60879 1.13595 0.258011 -5.18956 0.836402 0.251038 -5.04945 0.759009 
0.35234 -4.71257 0.907774 0.439693 -3.94293 1.17412 0.657314 -1.02769 0.918274 
1.26263 -4.84304 2.19034 0.479033 -2.92835 1.3294 0.508376 -1.91752 1.21155 
0.939304 0.190535 0.520352 0.948065 -5.60607 1.72724 0.800996 -5.95919 1.41067 
0.445122 -5.54641 1.00566 0.280551 -5.19392 0.792557 0.711124 -0.620609 0.761937 
0.314634 -4.97832 0.815429 0.396759 -4.43134 1.03787 0.449027 -3.50946 1.27842 
0.510651 -1.47052 1.06777 0.466233 -2.45039 1.31834 1.04 -5.27294 1.92777 
0.756865 -0.229405 0.612106 0.712346 -5.98694 1.25807 0.969111 -5.91735 1.61767 
0.409975 -5.50136 0.90784 0.315089 -5.18931 0.786491 0.362657 -4.82784 0.908904 
0.417528 -4.07571 1.16318 0.529245 -1.04662 0.893635 0.442681 -3.04169 1.3373 
0.44864 -1.97477 1.23616 1.63965 -4.70923 2.49117 0.785421 0.155473 0.464187 
0.971826 -5.60316 1.75368 0.633999 -5.95566 1.12068 0.954484 -6.16123 1.51267 
0.391948 -5.47641 0.842553 0.562278 -0.646419 0.717428 0.350326 -5.14414 0.822743 
0.389957 -4.58456 1.02296 0.420362 -3.65565 1.26433 0.433326 -1.51567 1.08867 
0.425908 -2.55435 1.33733 1.21465 -5.24326 2.03798 0.596494 -0.266113 0.551984 
1.00885 -5.91206 1.65428 0.895775 -6.29999 1.39324 0.567204 -5.90739 1.0053 
0.386766 -5.45803 0.815145 0.375112 -5.0208 0.898067 0.399376 -4.24824 1.1355 
0.42802 -1.08455 0.899697 0.410307 -3.18601 1.32734 0.402664 -2.06542 1.26791 
0.634952 0.110243 0.400155 1.95547 -4.65766 2.90665 1.02345 -5.59705 1.79094 
1.04937 -6.22234 1.58837 0.813205 -6.34374 1.26536 0.435931 -0.685 0.700416 
0.510227 -5.86488 0.919278 0.388343 -5.41113 0.832124 0.385792 -4.79172 0.995369 
0.395359 -3.8317 1.2292 0.37731 -1.59292 1.12942 0.391036 -2.68799 1.33917 
1.4446 -5.16709 2.24706 0.450063 -0.314243 0.5118 1.01854 -5.88276 1.67311 
1.03646 -6.48096 1.51602 0.72311 -6.33152 1.14468 0.464949 -5.82602 0.872278 
0.388967 -5.28446 0.890228 0.384504 -4.45493 1.09289 0.355276 -1.15079 0.938715 
0.381111 -3.35476 1.29242 0.365406 -2.18631 1.28817 0.496312 0.0568436 0.345957 
2.09637 -4.70919 3.29052 1.12013 -5.56652 1.86987 1.08006 -6.19264 1.62398 
0.970462 -6.64104 1.42378 0.634604 -6.29669 1.04752 0.340621 -0.745455 0.724262 
0.432838 -5.75637 0.873436 0.384557 -5.04129 0.970502 0.373461 -4.02936 1.17564 
0.336286 -1.70301 1.17081 0.359086 -2.84463 1.31381 0.379776 -0.0043608 0.318098 
0.331943 -2.33088 1.28209 0.354163 -3.54049 1.2347 0.373399 -4.68381 1.05099 
0.411147 -5.59776 0.917916 1.03001 -5.85394 1.69883 1.11446 -6.52274 1.59748 
0.556186 -6.24538 0.99126 0.873782 -6.7088 1.32354 1.65593 -5.08882 2.55489 
0.306512 -1.25403 0.997414 0.330859 -0.378968 0.513478 0.328445 -3.0178 1.26125 
0.302273 -1.83993 1.19174 0.3551 -4.23909 1.11883 0.393095 -5.31494 0.982738 
0.49763 -6.14334 0.988711 0.278155 -0.847997 0.79081 0.767407 -6.71474 1.23978 
1.08656 -6.80579 1.5631 1.07004 -6.13503 1.63864 1.25785 -5.49228 2.02089 
2.08031 -4.70321 3.49799 0.284334 -0.081506 0.327044 0.299003 -2.49251 1.24533 
0.329952 -3.73581 1.16812 0.271514 -1.39029 1.04905 0.372204 -4.92129 1.04433 
0.459169 -5.93335 1.03115 0.671502 -6.66868 1.20071 1.00603 -6.99127 1.51732 
1.12999 -6.47059 1.63666 1.06489 -5.81486 1.75487 0.250308 -0.494974 0.581873 
1.78243 -5.03958 2.8899 0.299301 -3.20155 1.19305 0.268871 -1.99531 1.18052 
0.345463 -4.45151 1.09163 0.429662 -5.59513 1.0878 0.602109 -6.53536 1.22298 
0.903971 -7.07527 1.48557 0.239724 -0.990909 0.871565 1.1443 -6.83306 1.65921 
1.04663 -6.08008 1.65588 1.41554 -5.36898 2.26831 1.99902 -4.4671 3.49594 
0.212651 -0.187947 0.384427 0.265916 -2.66617 1.18567 0.312598 -3.93386 1.1224 
0.239424 -1.54602 1.07002 0.397827 -5.15827 1.13091 0.558454 -6.26876 1.2903 
0.813038 -7.05696 1.50513 1.1002 -7.14293 1.6913 1.09805 -6.38244 1.65183 
1.13604 -5.73203 1.87012 0.206473 -0.635617 0.676263 1.80851 -4.96823 3.12857 
0.274906 -3.39089 1.13488 0.233449 -2.16089 1.13929 0.359135 -4.66203 1.15068 
0.522471 -5.87369 1.35696 0.75592 -6.90398 1.5973 0.209822 -1.14575 0.924042 
1.02492 -7.33667 1.74775 1.03266 -6.01867 1.69829 1.13751 -6.74952 1.70905 
1.55243 -5.22267 2.59123 0.169904 -0.325266 0.480734 1.92791 -3.9669 3.38442 
0.235131 -2.84713 1.12415 0.313927 -4.13161 1.14982 0.204058 -1.70464 1.05385 
0.478679 -5.39658 1.38762 0.724288 -6.59046 1.7284 0.963184 -7.37218 1.86856 
1.13372 -7.14697 1.81506 1.24447 -5.57607 2.07256 1.03788 -6.27943 1.66683 
0.178688 -0.791615 0.755576 1.78471 -4.7151 3.17935 0.264349 -3.58275 1.13265 
0.197326 -2.33093 1.08443 0.422797 -4.87742 1.37427 0.690104 -6.15202 1.83025 
0.938102 -7.21461 2.06703 0.17709 -1.30167 0.93581 1.10196 -7.45707 1.97766 
1.07427 -6.6131 1.72976 1.05964 -5.88228 1.81308 1.61795 -5.08537 2.85508 
0.145388 -0.484029 0.578919 0.213553 -3.03301 1.09959 0.357279 -4.33612 1.32622 
1.87512 -3.35043 3.29212 0.164856 -1.86417 1.0136 0.636129 -5.64852 1.86074 
0.928755 -6.86927 2.28129 1.08461 -7.56187 2.21898 1.09763 -7.02672 1.88548 
0.980907 -6.16473 1.70869 1.42824 -5.2792 2.48023 0.150242 -0.950559 0.79507 
1.71758 -4.55791 3.05462 0.165848 -2.50655 1.04784 0.286673 -3.7825 1.25631 
0.560406 -5.11569 1.81688 0.900251 -6.40502 2.424 0.137935 -1.45508 0.914627 
1.09462 -7.40561 2.51897 1.10948 -7.40861 2.14086 0.97911 -6.46558 1.74854 
1.16279 -5.6234 2.04627 0.12235 -0.649664 0.643395 0.21602 -3.22849 1.17387 
1.54627 -5.02048 2.81502 0.125605 -2.02676 0.974987 0.468296 -4.56735 1.71528 
0.839505 -5.89206 2.46063 1.82226 -2.87586 3.2514 1.09909 -7.03115 2.78332 
0.96394 -5.99274 1.80465 1.13563 -7.5656 2.48426 1.00296 -6.83753 1.92513 
0.11358 -1.10554 0.794411 0.150503 -2.69253 1.08203 1.71692 -4.02534 2.95685 
0.367266 -4.00885 1.57664 1.29528 -5.3181 2.35118 0.749347 -5.36155 2.40094 
0.0944138 -1.60655 0.881407 1.06926 -6.54614 2.93382 0.88431 -6.3116 1.78803 
1.16749 -7.40155 2.83779 1.03856 -7.2024 2.23766 0.0900362 -0.81224 0.663555 
1.55344 -4.79098 2.83716 0.265525 -3.44858 1.4195 0.0953745 -2.19743 0.981163 
0.636265 -4.81915 2.26585 1.00333 -5.73547 1.96024 1.00364 -6.03216 2.96554 
0.875641 -6.62389 1.9618 1.16978 -6.99706 3.09317 1.08873 -7.34652 2.63092 
1.74853 -2.51715 3.20596 0.0685133 -1.25574 0.770657 1.35126 -5.10327 2.53632 
0.170923 -2.90141 1.25647 0.507752 -4.26448 2.0758 1.70649 -3.47622 2.88207 
0.819293 -6.11161 1.85612 0.909504 -5.51796 2.90476 0.0536554 -1.75979 0.871287 
1.13245 -6.49533 3.21314 0.902635 -6.8861 2.29095 1.12422 -7.15603 2.97793 
0.0460466 -0.96934 0.652475 1.55945 -4.44008 2.76092 0.0905804 -2.3872 1.09411 
1.07012 -5.42643 2.14309 0.373505 -3.70268 1.85084 0.791233 -5.00015 2.77137 
1.06629 -5.98817 3.22781 0.745711 -6.38041 2.00211 1.11838 -6.73413 3.18799 
0.945491 -6.93186 2.67479 1.65296 -2.25643 3.11926 0.0207488 -1.40512 0.756456 
1.37766 -4.88464 2.61244 0.244711 -3.14759 1.61017 0.65215 -4.46761 2.57497 
0.0292544 -1.92162 0.935395 0.809744 -5.79954 1.94824 1.67597 -2.97105 2.84478 
0.979033 -5.50055 3.17315 1.07805 -6.23672 3.26734 0.732251 -6.51163 2.31001 
0.971026 -6.69174 2.97667 1.57026 -3.94393 2.65498 -0.00486448 -1.12834 0.644026 
1.14642 -5.10976 2.31959 0.131968 -2.61827 1.36844 0.498309 -3.91377 2.32236 
0.871146 -5.02272 3.06405 1.01946 -5.75179 3.26501 0.6533 -6.04235 2.01807 
0.960703 -6.27019 3.13567 0.747439 -6.43029 2.65699 1.53946 -2.05638 2.9773 
-0.015433 -1.56892 0.810098 1.39719 -4.57859 2.56875 0.0416445 -2.12453 1.13045 
0.741075 -4.53558 2.89829 0.339404 -3.339 2.02264 0.948147 -5.2993 3.21703 
0.898474 -5.3251 2.08282 0.926426 -5.80116 3.18265 0.756014 -6.12482 2.90607 
0.578707 -6.11339 2.27482 1.61457 -2.54054 2.81399 1.56858 -3.40441 2.57572 
-0.0459824 -1.31787 0.708727 1.23621 -4.77026 2.43114 0.589843 -4.02085 2.66647 
0.860755 -4.86672 3.13419 0.882553 -5.3549 3.16704 0.184673 -2.73918 1.67461 
0.744739 -5.70366 3.02359 0.655753 -5.56694 2.00503 0.554975 -5.94873 2.57694 
1.41297 -1.88959 2.78049 0.0177861 -1.97044 1.13769 1.47102 -3.82138 2.4499 
0.751117 -4.42967 3.00628 0.833269 -4.94716 3.12127 0.421263 -3.45963 2.35505 
0.720315 -5.26735 3.04718 1.01724 -4.9113 2.21752 0.545934 -5.59385 2.79003 
0.49443 -5.65796 2.14594 1.551 -2.45219 2.67949 -0.0416429 -1.55901 0.919579 
0.22795 -2.79024 1.89974 0.774094 -4.56786 3.05611 1.30691 -4.31838 2.35735 
0.613506 -3.95607 2.80669 0.69202 -4.86098 3.01995 0.532658 -5.16577 2.88282 
0.415473 -5.50537 2.39516 0.764547 -5.03573 2.02412 1.29875 -1.76164 2.5744 
0.0869996 -2.22445 1.48492 1.4966 -3.03044 2.41325 0.696549 -4.19459 2.9625 
0.438294 -3.38891 2.47966 0.663504 -4.49611 2.96875 0.515554 -4.74793 2.89516 
0.382495 -5.14745 2.58773 1.1261 -4.54389 2.24105 0.51282 -5.14347 1.98012 
1.46033 -2.15677 2.60389 0.592297 -3.79764 2.81151 0.632093 -4.16768 2.90561 
0.0378167 -1.9267 1.34045 1.39595 -3.4677 2.24105 0.497217 -4.36619 2.86305 
0.364402 -4.71963 2.67795 0.351065 -5.05997 2.11592 0.260987 -2.76554 2.06485 
0.882825 -4.66012 2.05671 1.18475 -1.6448 2.34351 1.42834 -2.23107 2.45043 
0.461993 -3.35173 2.5724 0.591832 -3.86581 2.83118 0.479989 -4.02471 2.8063 
0.34938 -4.30814 2.69549 0.275476 -4.75309 2.28571 1.2082 -4.05226 2.12081 
0.609085 -4.69038 1.88078 0.53338 -3.56624 2.72755 0.153207 -2.27398 1.75855 
0.464168 -3.72365 2.73518 1.39316 -2.79801 2.18966 0.334503 -3.93405 2.67177 
0.243219 -4.34387 2.3832 0.360391 -4.63111 1.84749 0.339586 -2.89455 2.29476 
0.983287 -4.3223 1.99846 1.09622 -1.559 2.1449 0.454803 -3.24236 2.57097 
1.32159 -1.97411 2.3246 0.446389 -3.46017 2.65473 0.320604 -3.59575 2.62249 
0.219058 -4.38068 1.93981 0.692827 -4.39039 1.8132 0.225066 -3.93943 2.41399 
1.27537 -3.30812 1.98649 0.420688 -3.21801 2.56088 0.263427 -2.5275 2.07646 
0.30745 -3.28817 2.54987 1.0324 -3.92863 1.84317 0.402355 -4.28877 1.65576 
0.158248 -4.00559 2.02116 0.211536 -3.5691 2.40893 0.365628 -2.86472 2.357 
1.30908 -2.11011 2.16885 1.01534 -1.48547 1.94141 0.383967 -2.97765 2.44265 
0.295083 -3.01085 2.45433 1.25695 -2.82849 1.8829 0.733183 -4.12938 1.68435 
0.203976 -4.04499 1.61917 0.200087 -3.23009 2.38155 0.131431 -3.61414 2.06029 
0.282231 -2.75985 2.3357 0.299791 -2.53999 2.16056 0.960555 -1.44161 1.78086 
1.22314 -1.9547 2.01199 1.03584 -3.5183 1.65651 0.188684 -2.90948 2.32626 
0.451153 -4.02769 1.49439 0.102622 -3.69472 1.64898 0.118277 -3.25062 2.07408 
0.30054 -2.62633 2.24561 1.19568 -2.53701 1.73947 0.179853 -2.60664 2.2357 
0.213938 -3.77355 1.36054 0.782246 -3.77291 1.48625 0.110574 -2.92013 2.07267 
0.0599805 -3.30866 1.67965 0.188926 -2.36471 2.11745 0.91808 -1.41735 1.62585 
1.13958 -1.85672 1.81797 0.232045 -2.28753 2.03243 0.10431 -2.60736 2.0514 
0.0686538 -3.41512 1.32229 0.496154 -3.77626 1.30672 1.05608 -2.8851 1.47684 
0.0435428 -2.94376 1.6931 0.102037 -2.31961 2.01103 0.219041 -3.53826 1.13729 
0.835563 -3.26727 1.25615 0.00587661 -3.01663 1.31144 1.10228 -1.98287 1.61062 
0.0395942 -2.6143 1.70764 0.0992118 -2.07854 1.92378 0.130271 -1.97895 1.86565 
0.889054 -1.41948 1.4719 0.503053 -3.47925 1.07218 0.0478805 -3.16191 1.03678 
0.0406061 -2.30142 1.71919 -0.0167703 -2.63257 1.30194 1.03196 -2.20721 1.35592 
0.041406 -2.00072 1.70687 0.227675 -3.28585 0.89351 0.804574 -2.87786 1.0308 
0.869829 -1.4464 1.32164 -0.0331201 -2.73373 0.975222 0.0474349 -1.74928 1.67451 
-0.0167489 -2.29583 1.32757 0.0404837 -2.91937 0.769737 0.520479 -3.06005 0.784935 
0.932035 -2.06051 1.11719 -0.00506686 -1.9671 1.38497 -0.0627645 -2.31271 0.927927 
0.848755 -1.49498 1.1545 0.00304901 -1.6644 1.4064 0.250086 -2.95172 0.600802 
0.769404 -2.32109 0.782636 -0.053996 -2.47221 0.666598 -0.0503595 -1.95917 1.03649 
0.0483722 -2.64351 0.491273 0.797558 -1.58359 0.893455 0.541539 -2.47154 0.476364 
-0.0393473 -1.62118 1.04821 -0.0849992 -1.9393 0.717438 -0.0895496 -2.05817 0.513266 
0.285815 -2.48326 0.270086 -0.0483468 -2.18131 0.331639 0.686886 -1.7087 0.551347 
-0.0811996 -1.60403 0.690684 0.078701 -2.28924 0.176833 0.483567 -1.8477 0.165287 
-0.104634 -1.64172 0.394588 0.218359 -1.90742 -0.0853284 -0.0873993 -1.72749 0.174441 
0.000139632 -1.83441 -0.0307966 
