# vtk DataFile Version 3.0
vtk output
ASCII
DATASET POLYDATA
POINTS 5000 float
3.35419 -31.777 0 6.68052 -31.6315 0 8.06405 -31.5595 0 
9.12674 -31.5002 0 10.0229 -31.4475 0 10.8123 -31.3992 0 
11.5256 -31.3541 0 12.1812 -31.3115 0 12.7909 -31.271 0 
13.363 -31.2322 0 13.9035 -31.1948 0 14.417 -31.1586 0 
14.9071 -31.1236 0 15.3766 -31.0895 0 15.8277 -31.0564 0 
16.2624 -31.024 0 16.6821 -30.9923 0 17.0884 -30.9614 0 
17.4823 -30.9311 0 17.8648 -30.9014 0 18.2368 -30.8722 0 
18.599 -30.8435 0 18.9521 -30.8153 0 19.2967 -30.7875 0 
19.6334 -30.7602 0 19.9626 -30.7332 0 20.2847 -30.7066 0 
20.6001 -30.6803 0 20.9092 -30.6545 0 21.2125 -30.6289 0 
21.5099 -30.6036 0 21.8019 -30.5786 0 22.0889 -30.5539 0 
22.3708 -30.5295 0 22.648 -30.5053 0 22.9207 -30.4814 0 
23.189 -30.4576 0 23.4533 -30.434 0 23.7135 -30.4107 0 
23.9698 -30.3876 0 24.2225 -30.3647 0 24.4716 -30.342 0 
24.7172 -30.3195 0 24.9595 -30.2971 0 25.1986 -30.2749 0 
25.4346 -30.2529 0 25.6676 -30.2309 0 25.8977 -30.2091 0 
26.1249 -30.1875 0 26.3493 -30.166 0 26.5712 -30.1446 0 
26.7904 -30.1234 0 27.0072 -30.1023 0 27.2215 -30.0813 0 
27.4334 -30.0604 0 27.643 -30.0396 0 27.8504 -30.0189 0 
28.0556 -29.9983 0 28.2586 -29.9777 0 28.4596 -29.9573 0 
28.6586 -29.9369 0 28.8555 -29.9167 0 29.0506 -29.8965 0 
29.2437 -29.8764 0 29.435 -29.8564 0 29.6246 -29.8365 0 
29.8123 -29.8166 0 29.9984 -29.7968 0 30.1827 -29.7769 0 
30.3654 -29.7572 0 30.5465 -29.7376 0 30.726 -29.718 0 
30.9039 -29.6985 0 31.0804 -29.679 0 31.2554 -29.6596 0 
31.4289 -29.6402 0 31.6011 -29.6208 0 31.7717 -29.6015 0 
31.9411 -29.5822 0 32.1091 -29.5629 0 32.2757 -29.5437 0 
32.4412 -29.5246 0 32.6054 -29.5054 0 32.7682 -29.4863 0 
32.9298 -29.4673 0 33.0903 -29.4482 0 33.2495 -29.4292 0 
33.4077 -29.4102 0 33.5647 -29.3912 0 33.7205 -29.3722 0 
33.8753 -29.3533 0 34.0289 -29.3343 0 34.1816 -29.3154 0 
34.3331 -29.2966 0 34.4836 -29.2777 0 34.6332 -29.2588 0 
34.7817 -29.24 0 34.9292 -29.2212 0 35.0757 -29.2024 0 
35.2214 -29.1834 0 35.3661 -29.1646 0 35.5098 -29.1458 0 
35.6527 -29.1271 0 35.7946 -29.1083 0 35.9357 -29.0895 0 
36.0759 -29.0707 0 36.2153 -29.0519 0 36.3537 -29.0332 0 
36.4914 -29.0144 0 36.6283 -28.9956 0 36.7643 -28.9767 0 
36.8995 -28.9579 0 37.034 -28.9392 0 37.1677 -28.9204 0 
37.3006 -28.9016 0 37.4328 -28.8828 0 37.5643 -28.864 0 
37.6949 -28.8452 0 37.8249 -28.8264 0 37.9541 -28.8075 0 
38.0827 -28.7886 0 38.2105 -28.7698 0 38.3377 -28.7509 0 
38.4641 -28.7321 0 38.5899 -28.7132 0 38.7151 -28.6943 0 
38.8396 -28.6754 0 38.9634 -28.6565 0 39.0866 -28.6376 0 
39.2092 -28.6187 0 39.3311 -28.5997 0 39.4525 -28.5806 0 
39.5733 -28.5617 0 39.6934 -28.5427 0 39.813 -28.5237 0 
39.9319 -28.5047 0 40.0503 -28.4856 0 40.1681 -28.4666 0 
40.2853 -28.4475 0 40.402 -28.4284 0 40.5181 -28.4093 0 
40.6336 -28.3901 0 40.7487 -28.3709 0 40.8632 -28.3518 0 
40.9772 -28.3326 0 41.0907 -28.3134 0 41.2036 -28.2942 0 
41.316 -28.2749 0 41.4279 -28.2557 0 41.5393 -28.2364 0 
41.6502 -28.2171 0 41.7607 -28.1976 0 41.8705 -28.1783 0 
41.9801 -28.1589 0 42.089 -28.1395 0 42.1975 -28.1201 0 
42.3055 -28.1007 0 42.4131 -28.0812 0 42.5202 -28.0618 0 
42.6269 -28.0423 0 42.7332 -28.0227 0 42.839 -28.0032 0 
42.9444 -27.9835 0 43.0492 -27.9639 0 43.1537 -27.9443 0 
43.2577 -27.9246 0 43.3614 -27.905 0 43.4646 -27.8853 0 
43.5674 -27.8656 0 43.6698 -27.8458 0 43.7718 -27.826 0 
43.8734 -27.8063 0 43.9746 -27.7863 0 44.0753 -27.7665 0 
44.1758 -27.7466 0 44.2758 -27.7267 0 44.3755 -27.7068 0 
44.4747 -27.6869 0 44.5736 -27.6669 0 44.672 -27.6469 0 
44.7702 -27.6269 0 44.8679 -27.6068 0 44.9653 -27.5867 0 
45.0624 -27.5665 0 45.1591 -27.5464 0 45.2554 -27.5263 0 
45.3513 -27.5061 0 45.447 -27.4859 0 45.5423 -27.4656 0 
45.6372 -27.4454 0 45.7319 -27.4251 0 45.8261 -27.4048 0 
45.92 -27.3844 0 46.0137 -27.3639 0 46.1069 -27.3435 0 
46.1999 -27.3231 0 46.2925 -27.3027 0 46.3848 -27.2822 0 
46.4768 -27.2617 0 46.5685 -27.2411 0 46.6598 -27.2206 0 
46.7509 -27.2 0 46.8416 -27.1794 0 46.9321 -27.1587 0 
47.0222 -27.138 0 47.1121 -27.1173 0 47.2016 -27.0965 0 
47.2909 -27.0758 0 47.3798 -27.055 0 47.4685 -27.0342 0 
47.5568 -27.0134 0 47.6449 -26.9925 0 47.7327 -26.9716 0 
47.8203 -26.9507 0 47.9075 -26.9297 0 47.9944 -26.9087 0 
48.0812 -26.8877 0 48.1675 -26.8667 0 48.2536 -26.8456 0 
48.3395 -26.8245 0 48.4251 -26.8034 0 48.5104 -26.7823 0 
48.5955 -26.7611 0 48.6804 -26.74 0 48.7649 -26.7186 0 
48.8491 -26.6974 0 48.9332 -26.6761 0 49.017 -26.6548 0 
49.1005 -26.6335 0 49.1838 -26.6122 0 49.2668 -26.5908 0 
49.3496 -26.5694 0 49.4322 -26.5479 0 49.5144 -26.5265 0 
49.5965 -26.505 0 49.6783 -26.4834 0 49.7598 -26.4618 0 
49.8412 -26.4403 0 49.9223 -26.4187 0 50.0031 -26.3971 0 
50.0837 -26.3754 0 50.1641 -26.3537 0 50.2443 -26.3321 0 
50.3241 -26.3103 0 50.4039 -26.2886 0 50.4833 -26.2667 0 
50.5626 -26.2449 0 50.6416 -26.2231 0 50.7205 -26.2012 0 
50.799 -26.1793 0 50.8774 -26.1574 0 50.9556 -26.1355 0 
51.0334 -26.1135 0 51.1112 -26.0916 0 51.1887 -26.0695 0 
51.266 -26.0475 0 51.3431 -26.0253 0 51.42 -26.0033 0 
51.4966 -25.9811 0 51.5731 -25.959 0 51.6493 -25.9368 0 
51.7253 -25.9147 0 51.8012 -25.8924 0 51.8769 -25.8702 0 
51.9523 -25.8479 0 52.0276 -25.8257 0 52.1026 -25.8032 0 
52.1775 -25.7809 0 52.2521 -25.7585 0 52.3265 -25.7362 0 
52.4008 -25.7137 0 52.4749 -25.6913 0 52.5487 -25.6688 0 
52.6225 -25.6464 0 52.696 -25.6239 0 52.7692 -25.6013 0 
52.8424 -25.5788 0 52.9153 -25.5561 0 52.988 -25.5335 0 
53.0606 -25.5108 0 53.1331 -25.4882 0 53.2052 -25.4655 0 
53.2772 -25.4428 0 53.3491 -25.4201 0 53.4207 -25.3973 0 
53.4922 -25.3746 0 53.5635 -25.3518 0 53.6346 -25.3289 0 
53.7056 -25.306 0 53.7763 -25.2832 0 53.847 -25.2603 0 
53.9174 -25.2374 0 53.9876 -25.2144 0 54.0578 -25.1915 0 
54.1277 -25.1685 0 54.1974 -25.1455 0 54.2669 -25.1225 0 
54.3364 -25.0993 0 54.4057 -25.0763 0 54.4747 -25.0532 0 
54.5436 -25.0301 0 54.6124 -25.0069 0 54.681 -24.9838 0 
54.7493 -24.9606 0 54.8176 -24.9374 0 54.8857 -24.9142 0 
54.9537 -24.891 0 55.0214 -24.8677 0 55.089 -24.8443 0 
55.1565 -24.821 0 55.2238 -24.7977 0 55.2909 -24.7743 0 
55.3579 -24.751 0 55.4248 -24.7276 0 55.4915 -24.7042 0 
55.558 -24.6808 0 55.6243 -24.6573 0 55.6905 -24.6338 0 
55.7566 -24.6102 0 55.8225 -24.5867 0 55.8883 -24.5632 0 
55.954 -24.5396 0 56.0194 -24.5161 0 56.0847 -24.4925 0 
56.1499 -24.4689 0 56.2149 -24.4452 0 56.2798 -24.4216 0 
56.3445 -24.3979 0 56.4091 -24.3741 0 56.4735 -24.3504 0 
56.5379 -24.3267 0 56.602 -24.3029 0 56.6661 -24.2792 0 
56.7299 -24.2554 0 56.7936 -24.2316 0 56.8572 -24.2078 0 
56.9207 -24.1839 0 56.984 -24.16 0 57.0472 -24.1362 0 
57.1102 -24.1122 0 57.1731 -24.0882 0 57.2358 -24.0643 0 
57.2984 -24.0404 0 57.3609 -24.0164 0 57.4233 -23.9924 0 
57.4855 -23.9684 0 57.5476 -23.9444 0 57.6095 -23.9203 0 
57.6713 -23.8963 0 57.733 -23.8721 0 57.7945 -23.848 0 
57.856 -23.8239 0 57.9172 -23.7997 0 57.9784 -23.7756 0 
58.0394 -23.7514 0 58.1003 -23.7272 0 58.1611 -23.703 0 
58.2217 -23.6788 0 58.2822 -23.6546 0 58.3426 -23.6303 0 
58.4028 -23.606 0 58.4629 -23.5817 0 58.523 -23.5574 0 
58.5828 -23.5331 0 58.6426 -23.5088 0 58.7022 -23.4844 0 
58.7617 -23.46 0 58.821 -23.4357 0 58.8803 -23.4113 0 
58.9395 -23.3869 0 58.9984 -23.3623 0 59.0573 -23.3379 0 
59.1161 -23.3134 0 59.1747 -23.289 0 59.2332 -23.2645 0 
59.2916 -23.24 0 59.3499 -23.2154 0 59.408 -23.1909 0 
59.466 -23.1664 0 59.524 -23.1418 0 59.5818 -23.1172 0 
59.6394 -23.0925 0 59.697 -23.0679 0 59.7545 -23.0433 0 
59.8117 -23.0187 0 59.8689 -22.994 0 59.926 -22.9693 0 
59.9831 -22.9447 0 60.0399 -22.92 0 60.0967 -22.8953 0 
60.1533 -22.8705 0 60.2098 -22.8457 0 60.2662 -22.821 0 
60.3225 -22.7962 0 60.3787 -22.7714 0 60.4347 -22.7466 0 
60.4907 -22.7218 0 60.5465 -22.697 0 60.6022 -22.6722 0 
60.6578 -22.6473 0 60.7134 -22.6225 0 60.7688 -22.5975 0 
60.824 -22.5726 0 60.8792 -22.5477 0 60.9343 -22.5228 0 
60.9892 -22.4979 0 61.0441 -22.473 0 61.0988 -22.448 0 
61.1534 -22.4231 0 61.208 -22.3981 0 61.2623 -22.3731 0 
61.3166 -22.3481 0 61.3708 -22.323 0 61.425 -22.298 0 
61.4789 -22.2729 0 61.5328 -22.2479 0 61.5865 -22.2229 0 
61.6402 -22.1978 0 61.6938 -22.1727 0 61.7473 -22.1476 0 
61.8006 -22.1225 0 61.8538 -22.0974 0 61.907 -22.0722 0 
61.96 -22.047 0 62.0129 -22.0219 0 62.0658 -21.9967 0 
62.1185 -21.9716 0 62.1711 -21.9464 0 62.2236 -21.9212 0 
62.2761 -21.896 0 62.3284 -21.8708 0 62.3806 -21.8456 0 
62.4328 -21.8203 0 62.4848 -21.795 0 62.5367 -21.7697 0 
62.5885 -21.7445 0 62.6402 -21.7192 0 62.6918 -21.6939 0 
62.7434 -21.6686 0 62.7947 -21.6433 0 62.8461 -21.618 0 
62.8973 -21.5927 0 62.9484 -21.5673 0 62.9994 -21.5419 0 
63.0503 -21.5165 0 63.1011 -21.4912 0 63.1519 -21.4658 0 
63.2026 -21.4404 0 63.253 -21.415 0 63.3035 -21.3896 0 
63.3538 -21.3642 0 63.404 -21.3388 0 63.4542 -21.3134 0 
63.5043 -21.2878 0 63.5542 -21.2624 0 63.6041 -21.2369 0 
63.6538 -21.2114 0 63.7035 -21.186 0 63.7531 -21.1605 0 
63.8025 -21.135 0 63.852 -21.1095 0 63.9012 -21.084 0 
63.9504 -21.0585 0 63.9996 -21.033 0 64.0486 -21.0073 0 
64.0975 -20.9818 0 64.1463 -20.9562 0 64.1951 -20.9307 0 
64.2436 -20.9051 0 64.2922 -20.8795 0 64.3407 -20.8539 0 
64.389 -20.8284 0 64.4373 -20.8028 0 64.4855 -20.7772 0 
64.5335 -20.7514 0 64.5816 -20.7258 0 64.6295 -20.7002 0 
64.6773 -20.6746 0 64.725 -20.6489 0 64.7726 -20.6233 0 
64.8202 -20.5976 0 64.8676 -20.572 0 64.915 -20.5463 0 
64.9623 -20.5206 0 65.0095 -20.4949 0 65.0565 -20.4691 0 
65.1036 -20.4434 0 65.1505 -20.4177 0 65.1973 -20.392 0 
65.2441 -20.3663 0 65.2907 -20.3406 0 65.3373 -20.3148 0 
65.3838 -20.2891 0 65.4301 -20.2634 0 65.4765 -20.2376 0 
65.5227 -20.2117 0 65.5688 -20.186 0 65.6149 -20.1602 0 
65.6608 -20.1344 0 65.7067 -20.1086 0 65.7525 -20.0829 0 
65.7981 -20.0571 0 65.8438 -20.0313 0 65.8893 -20.0055 0 
65.9347 -19.9796 0 65.9801 -19.9538 0 66.0253 -19.9279 0 
66.0706 -19.9021 0 66.1156 -19.8762 0 66.1607 -19.8504 0 
66.2056 -19.8246 0 66.2504 -19.7987 0 66.2952 -19.7728 0 
66.3398 -19.747 0 66.3845 -19.7211 0 66.429 -19.6952 0 
66.4734 -19.6693 0 66.5177 -19.6434 0 66.562 -19.6175 0 
[...]
POINT_DATA 5000
VECTORS velocity double
13.2154 -7.46033 0 13.6121 -6.93709 0 13.8038 -6.72584 0 
13.9583 -6.56815 0 14.092 -6.43905 0 14.2116 -6.32879 0 
14.3203 -6.23232 0 14.4205 -6.14653 0 14.5134 -6.06942 0 
14.6 -5.99959 0 14.681 -5.93598 0 14.7572 -5.8778 0 
14.8288 -5.82441 0 14.8964 -5.77531 0 14.9601 -5.73006 0 
15.0204 -5.68833 0 15.0773 -5.64985 0 15.1312 -5.61429 0 
15.1822 -5.58145 0 15.2305 -5.55116 0 15.2762 -5.52323 0 
15.3193 -5.49752 0 15.3602 -5.47387 0 15.3988 -5.45218 0 
15.4352 -5.43231 0 15.4696 -5.41419 0 15.502 -5.39773 0 
15.5325 -5.3828 0 15.5612 -5.36934 0 15.5881 -5.35727 0 
15.6133 -5.34655 0 15.6369 -5.33709 0 15.659 -5.32883 0 
15.6795 -5.32174 0 15.6985 -5.31574 0 15.7161 -5.31079 0 
15.7324 -5.30686 0 15.7473 -5.30391 0 15.7609 -5.30186 0 
15.7733 -5.30069 0 15.7844 -5.30037 0 15.7944 -5.30087 0 
15.8033 -5.30214 0 15.811 -5.30416 0 15.8177 -5.3069 0 
15.8233 -5.31033 0 15.8279 -5.31442 0 15.8316 -5.31917 0 
15.8342 -5.32452 0 15.836 -5.33044 0 15.8368 -5.33694 0 
15.8368 -5.34398 0 15.8359 -5.35154 0 15.8342 -5.3596 0 
15.8317 -5.36815 0 15.8284 -5.37716 0 15.8243 -5.38662 0 
15.8195 -5.39651 0 15.814 -5.40683 0 15.8077 -5.41753 0 
15.8008 -5.42862 0 15.7932 -5.44007 0 15.785 -5.45187 0 
15.7761 -5.46402 0 15.7666 -5.47649 0 15.7565 -5.48927 0 
15.7459 -5.50236 0 15.7346 -5.51573 0 15.7229 -5.52941 0 
15.7105 -5.54332 0 15.6977 -5.5575 0 15.6843 -5.57192 0 
15.6705 -5.58658 0 15.6561 -5.60146 0 15.6413 -5.61656 0 
15.6261 -5.63187 0 15.6103 -5.64738 0 15.5942 -5.66307 0 
15.5776 -5.67894 0 15.5606 -5.695 0 15.5432 -5.71122 0 
15.5254 -5.72759 0 15.5073 -5.74412 0 15.4888 -5.76078 0 
15.4699 -5.77758 0 15.4506 -5.79452 0 15.4311 -5.81157 0 
15.4111 -5.82874 0 15.3909 -5.84602 0 15.3704 -5.86342 0 
15.3495 -5.88091 0 15.3283 -5.89848 0 15.3069 -5.91615 0 
15.2852 -5.9339 0 15.2632 -5.95171 0 15.2409 -5.96961 0 
15.2184 -5.98757 0 15.1956 -6.0056 0 15.1726 -6.02368 0 
15.1494 -6.04183 0 15.1259 -6.06001 0 15.1022 -6.07824 0 
15.0783 -6.09651 0 15.0542 -6.11481 0 15.0298 -6.13315 0 
15.0053 -6.15152 0 14.9806 -6.16991 0 14.9557 -6.18832 0 
14.9306 -6.20675 0 14.9053 -6.2252 0 14.8799 -6.24366 0 
14.8543 -6.26212 0 14.8286 -6.28058 0 14.8027 -6.29905 0 
14.7766 -6.31752 0 14.7504 -6.33599 0 14.724 -6.35445 0 
14.6976 -6.37289 0 14.671 -6.39132 0 14.6443 -6.40974 0 
14.6174 -6.42815 0 14.5905 -6.44652 0 14.5634 -6.46489 0 
14.5362 -6.48321 0 14.5089 -6.50152 0 14.4815 -6.51979 0 
14.454 -6.53805 0 14.4265 -6.55625 0 14.3988 -6.57442 0 
14.3711 -6.59256 0 14.3433 -6.61065 0 14.3154 -6.62872 0 
14.2874 -6.64673 0 14.2594 -6.6647 0 14.2312 -6.68262 0 
14.2031 -6.7005 0 14.1748 -6.71831 0 14.1465 -6.73608 0 
14.1182 -6.7538 0 14.0898 -6.77146 0 14.0613 -6.78907 0 
14.0329 -6.80661 0 14.0043 -6.82411 0 13.9757 -6.84154 0 
13.9471 -6.8589 0 13.9185 -6.87621 0 13.8898 -6.89345 0 
13.8611 -6.91062 0 13.8323 -6.92773 0 13.8036 -6.94477 0 
13.7748 -6.96173 0 13.746 -6.97864 0 13.7172 -6.99546 0 
13.6884 -7.01223 0 13.6595 -7.02891 0 13.6307 -7.04552 0 
13.6018 -7.06205 0 13.5729 -7.07851 0 13.544 -7.09489 0 
13.5152 -7.1112 0 13.4863 -7.12744 0 13.4574 -7.14358 0 
13.4285 -7.15966 0 13.3997 -7.17564 0 13.3708 -7.19154 0 
13.3419 -7.20737 0 13.3131 -7.22311 0 13.2842 -7.23877 0 
13.2554 -7.25434 0 13.2266 -7.26984 0 13.1978 -7.28524 0 
13.169 -7.30057 0 13.1403 -7.31579 0 13.1116 -7.33093 0 
13.0829 -7.346 0 13.0542 -7.36098 0 13.0255 -7.37586 0 
12.9969 -7.39066 0 12.9683 -7.40536 0 12.9398 -7.41997 0 
12.9112 -7.4345 0 12.8827 -7.44893 0 12.8542 -7.46327 0 
12.8258 -7.47753 0 12.7974 -7.49169 0 12.769 -7.50577 0 
12.7408 -7.51973 0 12.7125 -7.53363 0 12.6842 -7.54742 0 
12.656 -7.56112 0 12.6279 -7.57473 0 12.5998 -7.58824 0 
12.5717 -7.60165 0 12.5437 -7.61498 0 12.5157 -7.62821 0 
12.4878 -7.64135 0 12.4599 -7.6544 0 12.4321 -7.66734 0 
12.4043 -7.68019 0 12.3766 -7.69295 0 12.3489 -7.70561 0 
12.3213 -7.71819 0 12.2937 -7.73066 0 12.2662 -7.74303 0 
12.2388 -7.75531 0 12.2114 -7.7675 0 12.1841 -7.77958 0 
12.1568 -7.79158 0 12.1296 -7.80347 0 12.1024 -7.81527 0 
12.0753 -7.82697 0 12.0483 -7.83859 0 12.0213 -7.8501 0 
11.9944 -7.86152 0 11.9676 -7.87282 0 11.9408 -7.88405 0 
11.914 -7.89519 0 11.8874 -7.9062 0 11.8608 -7.91714 0 
11.8343 -7.92798 0 11.8078 -7.93873 0 11.7814 -7.94937 0 
11.7551 -7.95992 0 11.7288 -7.97038 0 11.7027 -7.98073 0 
11.6766 -7.99099 0 11.6505 -8.00116 0 11.6245 -8.01123 0 
11.5986 -8.0212 0 11.5728 -8.03108 0 11.547 -8.04087 0 
11.5213 -8.05056 0 11.4957 -8.06015 0 11.4701 -8.06965 0 
11.4446 -8.07905 0 11.4193 -8.08835 0 11.3939 -8.09756 0 
11.3687 -8.10668 0 11.3435 -8.1157 0 11.3184 -8.12462 0 
11.2934 -8.13345 0 11.2684 -8.1422 0 11.2435 -8.15085 0 
11.2187 -8.15939 0 11.194 -8.16786 0 11.1694 -8.1762 0 
11.1448 -8.18447 0 11.1203 -8.19265 0 11.0959 -8.20074 0 
11.0715 -8.20873 0 11.0473 -8.21662 0 11.0231 -8.22444 0 
10.999 -8.23214 0 10.975 -8.23977 0 10.951 -8.24729 0 
10.9271 -8.25473 0 10.9034 -8.26207 0 10.8797 -8.26932 0 
10.856 -8.27649 0 10.8325 -8.28356 0 10.809 -8.29054 0 
10.7856 -8.29742 0 10.7623 -8.30422 0 10.7391 -8.31094 0 
10.7159 -8.31756 0 10.6929 -8.32409 0 10.6699 -8.33052 0 
10.647 -8.33687 0 10.6242 -8.34313 0 10.6014 -8.3493 0 
10.5788 -8.3554 0 10.5562 -8.36139 0 10.5337 -8.3673 0 
10.5112 -8.37313 0 10.4889 -8.37886 0 10.4667 -8.3845 0 
10.4445 -8.39006 0 10.4224 -8.39552 0 10.4004 -8.4009 0 
10.3785 -8.40621 0 10.3566 -8.41142 0 10.3349 -8.41655 0 
10.3132 -8.42159 0 10.2916 -8.42655 0 10.2701 -8.43142 0 
10.2486 -8.43621 0 10.2273 -8.44091 0 10.2061 -8.44551 0 
10.1848 -8.45005 0 10.1638 -8.4545 0 10.1427 -8.45887 0 
10.1218 -8.46315 0 10.1009 -8.46736 0 10.0801 -8.47148 0 
10.0594 -8.47552 0 10.0389 -8.47947 0 10.0183 -8.48335 0 
9.99791 -8.48712 0 9.97751 -8.49084 0 9.95724 -8.49447 0 
9.93705 -8.49802 0 9.91692 -8.50149 0 9.89687 -8.50489 0 
9.87694 -8.50819 0 9.85707 -8.51142 0 9.83729 -8.51457 0 
9.81755 -8.51765 0 9.79794 -8.52064 0 9.77843 -8.52355 0 
9.75896 -8.52639 0 9.73958 -8.52915 0 9.7203 -8.53183 0 
9.70106 -8.53444 0 9.68192 -8.53697 0 9.66286 -8.53943 0 
9.64389 -8.54181 0 9.62502 -8.5441 0 9.6062 -8.54633 0 
9.58751 -8.54847 0 9.56887 -8.55055 0 9.55028 -8.55255 0 
9.53179 -8.55448 0 9.51338 -8.55633 0 9.49508 -8.55811 0 
9.47682 -8.55982 0 9.45865 -8.56145 0 9.44058 -8.56301 0 
9.42256 -8.5645 0 9.40468 -8.56591 0 9.38685 -8.56725 0 
9.36907 -8.56853 0 9.35139 -8.56973 0 9.33376 -8.57087 0 
9.31626 -8.57192 0 9.29882 -8.57291 0 9.28143 -8.57384 0 
9.26414 -8.57469 0 9.24694 -8.57547 0 9.22979 -8.57619 0 
9.21278 -8.57681 0 9.19583 -8.57739 0 9.17893 -8.5779 0 
9.16212 -8.57833 0 9.14537 -8.57871 0 9.12872 -8.57901 0 
9.11212 -8.57926 0 9.09561 -8.57943 0 9.0792 -8.57953 0 
9.06285 -8.57957 0 9.04663 -8.57953 0 9.03043 -8.57944 0 
9.01429 -8.57929 0 8.99827 -8.57906 0 8.98228 -8.57878 0 
8.96642 -8.57843 0 8.95061 -8.57802 0 8.93487 -8.57754 0 
8.91921 -8.577 0 8.90362 -8.5764 0 8.88812 -8.57574 0 
8.87272 -8.575 0 8.85737 -8.57421 0 8.84208 -8.57336 0 
8.82689 -8.57245 0 8.81175 -8.57147 0 8.79667 -8.57045 0 
8.78168 -8.56935 0 8.76679 -8.5682 0 8.75196 -8.56698 0 
8.73718 -8.56572 0 8.72255 -8.56436 0 8.70792 -8.56298 0 
8.6934 -8.56153 0 8.67893 -8.56002 0 8.66455 -8.55845 0 
8.65023 -8.55683 0 8.63597 -8.55515 0 8.62181 -8.55342 0 
8.6077 -8.55163 0 8.59365 -8.54978 0 8.57969 -8.54787 0 
8.56588 -8.54589 0 8.55203 -8.54388 0 8.53829 -8.54181 0 
8.52464 -8.53968 0 8.51104 -8.5375 0 8.49751 -8.53526 0 
8.48403 -8.53298 0 8.47064 -8.53063 0 8.45731 -8.52824 0 
8.44408 -8.52579 0 8.43095 -8.52327 0 8.41783 -8.52071 0 
8.40477 -8.51811 0 8.3918 -8.51545 0 8.37893 -8.51274 0 
8.36608 -8.50998 0 8.35332 -8.50717 0 8.34062 -8.5043 0 
8.32801 -8.50139 0 8.31542 -8.49843 0 8.30297 -8.4954 0 
8.29057 -8.49234 0 8.27819 -8.48923 0 8.2659 -8.48606 0 
8.25371 -8.48285 0 8.24154 -8.4796 0 8.22945 -8.47629 0 
8.21743 -8.47294 0 8.20546 -8.46954 0 8.19359 -8.46609 0 
8.18177 -8.4626 0 8.17005 -8.45904 0 8.15835 -8.45545 0 
8.14674 -8.45182 0 8.13518 -8.44814 0 8.12368 -8.44441 0 
8.11223 -8.44064 0 8.10088 -8.43683 0 8.08954 -8.43297 0 
8.0783 -8.42907 0 8.06715 -8.42512 0 8.05607 -8.42111 0 
8.04503 -8.41708 0 8.03405 -8.413 0 8.02312 -8.40887 0 
8.01225 -8.40471 0 8.00147 -8.40051 0 7.99075 -8.39626 0 
7.98004 -8.39197 0 7.96946 -8.38764 0 7.9589 -8.38327 0 
7.94839 -8.37885 0 7.93802 -8.37438 0 7.92766 -8.36988 0 
7.91736 -8.36535 0 7.90711 -8.36077 0 7.89694 -8.35616 0 
7.8868 -8.35151 0 7.87675 -8.34681 0 7.86675 -8.34208 0 
7.85681 -8.33731 0 7.84691 -8.3325 0 7.83716 -8.32764 0 
7.82738 -8.32275 0 7.81768 -8.31783 0 7.80804 -8.31287 0 
7.79842 -8.30788 0 7.78892 -8.30285 0 7.77944 -8.29778 0 
7.77002 -8.29267 0 7.76068 -8.28753 0 7.75136 -8.28235 0 
7.74217 -8.27712 0 7.73299 -8.27187 0 7.72386 -8.26659 0 
7.71479 -8.26127 0 7.70576 -8.25592 0 7.6968 -8.25053 0 
7.68792 -8.24512 0 7.67905 -8.23966 0 7.67027 -8.23418 0 
7.66155 -8.22866 0 7.65284 -8.2231 0 7.64426 -8.2175 0 
7.63569 -8.21188 0 7.62717 -8.20623 0 7.61871 -8.20055 0 
7.61032 -8.19484 0 7.60196 -8.18909 0 7.59364 -8.18331 0 
7.58542 -8.17751 0 7.5772 -8.17167 0 7.56908 -8.1658 0 
7.56105 -8.15988 0 7.55299 -8.15395 0 7.54502 -8.148 0 
7.53709 -8.14201 0 7.52922 -8.13599 0 7.52139 -8.12995 0 
7.51362 -8.12387 0 7.50589 -8.11777 0 7.49822 -8.11164 0 
7.4906 -8.10548 0 7.48302 -8.09929 0 7.47558 -8.09305 0 
7.46811 -8.08681 0 7.46067 -8.08054 0 7.45333 -8.07425 0 
7.446 -8.06792 0 7.43873 -8.06157 0 7.43153 -8.0552 0 
7.42435 -8.0488 0 7.41726 -8.04237 0 7.41017 -8.03591 0 
7.40317 -8.02941 0 7.39622 -8.02291 0 7.38928 -8.01638 0 
7.38242 -8.00983 0 7.37558 -8.00325 0 7.36882 -7.99665 0 
7.3621 -7.99002 0 7.3554 -7.98337 0 7.34875 -7.9767 0 
7.34218 -7.97 0 7.33562 -7.96328 0 7.32919 -7.95652 0 
7.32272 -7.94975 0 7.31634 -7.94296 0 7.30996 -7.93615 0 
7.30368 -7.92932 0 7.2974 -7.92246 0 7.29117 -7.91558 0 
7.28502 -7.90869 0 7.27888 -7.90177 0 7.27278 -7.89483 0 
7.26682 -7.88785 0 7.26082 -7.88086 0 7.25487 -7.87386 0 
7.24895 -7.86684 0 7.24309 -7.85979 0 7.23726 -7.85273 0 
7.23149 -7.84565 0 7.22577 -7.83854 0 7.22008 -7.83142 0 
7.21444 -7.82428 0 7.2089 -7.8171 0 7.20335 -7.80993 0 
7.19781 -7.80273 0 7.19236 -7.79551 0 7.18693 -7.78828 0 
7.18153 -7.78103 0 7.17621 -7.77376 0 7.17089 -7.76647 0 
7.16562 -7.75917 0 7.16042 -7.75185 0 7.15524 -7.74451 0 
7.15014 -7.73714 0 7.14505 -7.72976 0 7.13999 -7.72238 0 
7.13498 -7.71497 0 7.12997 -7.70755 0 7.12505 -7.70012 0 
7.12017 -7.69267 0 7.11529 -7.6852 0 7.1105 -7.67772 0 
7.10571 -7.67022 0 7.10101 -7.66268 0 7.09634 -7.65516 0 
7.09168 -7.64762 0 7.08707 -7.64006 0 7.08249 -7.63249 0 
7.07792 -7.6249 0 7.07343 -7.61731 0 7.06898 -7.6097 0 
7.06453 -7.60207 0 7.06013 -7.59443 0 7.05585 -7.58676 0 
7.05154 -7.57909 0 7.04725 -7.57141 0 7.04302 -7.56372 0 
7.03883 -7.55602 0 7.03464 -7.5483 0 7.03053 -7.54058 0 
7.02642 -7.53283 0 7.02239 -7.52508 0 7.01836 -7.51732 0 
7.01438 -7.50954 0 7.01048 -7.50173 0 7.00657 -7.49394 0 
7.00267 -7.48612 0 6.99885 -7.4783 0 6.99503 -7.47047 0 
6.99125 -7.46263 0 6.98755 -7.45478 0 6.98386 -7.44692 0 
6.98016 -7.43904 0 6.97654 -7.43116 0 6.973 -7.42325 0 
6.96943 -7.41534 0 6.96589 -7.40743 0 6.96239 -7.39951 0 
6.95893 -7.39158 0 6.95551 -7.38364 0 6.95214 -7.37569 0 
6.94876 -7.36773 0 6.94546 -7.35977 0 6.94215 -7.3518 0 
6.9389 -7.34381 0 6.93572 -7.3358 0 6.93254 -7.3278 0 
6.92936 -7.31979 0 6.92621 -7.31178 0 6.92315 -7.30376 0 
6.92007 -7.29573 0 6.91705 -7.28769 0 6.91402 -7.27964 0 
6.91107 -7.2716 0 6.90812 -7.26354 0 6.90525 -7.25545 0 
6.90238 -7.24737 0 6.89954 -7.2393 0 6.89674 -7.23121 0 
6.89394 -7.22312 0 6.89122 -7.21503 0 6.88849 -7.20692 0 
6.8858 -7.19881 0 6.88315 -7.1907 0 6.8805 -7.18258 0 
6.87789 -7.17445 0 6.87539 -7.1663 0 6.87282 -7.15816 0 
6.87032 -7.15002 0 6.86785 -7.14187 0 6.86539 -7.13372 0 
6.86295 -7.12556 0 6.86056 -7.1174 0 6.8582 -7.10924 0 
6.85588 -7.10107 0 6.85356 -7.09289 0 6.85132 -7.08469 0 
6.84908 -7.07651 0 6.84686 -7.06833 0 6.84468 -7.06014 0 
6.8425 -7.05195 0 6.84036 -7.04375 0 6.83825 -7.03555 0 
6.83618 -7.02735 0 6.8341 -7.01914 0 6.8321 -7.01093 0 
6.83011 -7.00272 0 6.82819 -6.99448 0 6.82622 -6.98626 0 
6.82432 -6.97805 0 6.82243 -6.96982 0 6.82056 -6.9616 0 
6.81873 -6.95337 0 6.8169 -6.94514 0 6.81513 -6.93691 0 
6.81337 -6.92868 0 6.81161 -6.92043 0 6.80997 -6.91218 0 
6.80828 -6.90394 0 6.80665 -6.8957 0 6.80502 -6.88746 0 
6.80339 -6.87921 0 6.80184 -6.87098 0 6.80027 -6.86273 0 
6.79875 -6.85448 0 6.79725 -6.84624 0 6.79576 -6.83799 0 
6.79434 -6.82971 0 6.79291 -6.82147 0 6.79152 -6.81322 0 
6.79016 -6.80497 0 6.7888 -6.79672 0 6.78747 -6.78847 0 
6.78617 -6.78022 0 6.78487 -6.77197 0 6.78363 -6.76372 0 
6.7824 -6.75547 0 6.78116 -6.74722 0 6.78004 -6.73895 0 
6.77887 -6.7307 0 6.77773 -6.72245 0 6.77663 -6.71421 0 
6.77555 -6.70596 0 6.77447 -6.69772 0 6.77343 -6.68947 0 
6.77241 -6.68123 0 6.77139 -6.67298 0 6.77041 -6.66474 0 
6.76951 -6.65648 0 6.76859 -6.64825 0 6.76767 -6.64001 0 
6.76677 -6.63177 0 6.76591 -6.62354 0 6.76509 -6.61531 0 
6.76426 -6.60708 0 6.76346 -6.59885 0 6.76269 -6.59062 0 
6.76192 -6.5824 0 6.76121 -6.57418 0 6.76055 -6.56594 0 
6.75983 -6.55772 0 6.75919 -6.54951 0 6.75854 -6.54129 0 
6.75792 -6.53309 0 6.7573 -6.52487 0 6.75674 -6.51668 0 
6.75617 -6.50847 0 6.75561 -6.50027 0 6.75511 -6.49208 0 
6.75465 -6.48386 0 6.75417 -6.47567 0 6.75369 -6.46748 0 
6.75328 -6.45931 0 6.75287 -6.45113 0 6.75244 -6.44294 0 
6.75209 -6.43478 0 6.75173 -6.42661 0 6.7514 -6.41844 0 
6.75106 -6.41028 0 6.75083 -6.4021 0 6.75057 -6.39395 0 
6.75028 -6.38579 0 6.75006 -6.37765 0 6.74985 -6.36951 0 
6.74962 -6.36137 0 6.74946 -6.35324 0 6.74929 -6.34511 0 
6.74915 -6.33698 0 6.74905 -6.32887 0 6.74894 -6.32075 0 
6.7489 -6.31261 0 6.74882 -6.3045 0 6.74879 -6.2964 0 
6.74876 -6.28831 0 6.74873 -6.28021 0 6.74876 -6.27212 0 
6.74879 -6.26404 0 6.74884 -6.25596 0 6.74889 -6.24789 0 
6.74897 -6.23981 0 6.74912 -6.23173 0 6.74926 -6.22368 0 
6.74938 -6.21562 0 6.74954 -6.20758 0 6.74973 -6.19954 0 
6.74991 -6.1915 0 6.75013 -6.18347 0 6.75033 -6.17544 0 
6.7506 -6.16743 0 6.75086 -6.15941 0 6.75112 -6.1514 0 
6.75148 -6.14338 0 6.7518 -6.13538 0 6.75213 -6.12739 0 
6.75248 -6.11941 0 6.75284 -6.11143 0 6.75323 -6.10346 0 
6.75361 -6.09549 0 6.75403 -6.08753 0 6.75447 -6.07957 0 
6.75491 -6.07162 0 6.75545 -6.06367 0 6.75591 -6.05573 0 
6.75643 -6.0478 0 6.75695 -6.03988 0 6.75749 -6.03197 0 
6.75803 -6.02405 0 6.75859 -6.01615 0 6.75918 -6.00826 0 
6.75976 -6.00036 0 6.76038 -5.99248 0 6.76106 -5.98458 0 
6.76173 -5.97672 0 6.76239 -5.96886 0 6.76308 -5.96101 0 
6.76376 -5.95316 0 6.76447 -5.94531 0 6.76521 -5.93748 0 
6.76594 -5.92965 0 6.7667 -5.92183 0 6.76748 -5.91403 0 
6.76826 -5.90622 0 6.76911 -5.8984 0 6.76994 -5.89061 0 
6.77076 -5.88283 0 6.77162 -5.87505 0 6.7725 -5.86729 0 
6.77337 -5.85953 0 6.77427 -5.85177 0 6.77517 -5.84402 0 
6.77609 -5.83629 0 6.77703 -5.82855 0 6.77805 -5.82082 0 
6.77902 -5.8131 0 6.78001 -5.8054 0 6.781 -5.79769 0 
6.78201 -5.79 0 6.78305 -5.78232 0 6.78408 -5.77464 0 
6.78514 -5.76698 0 6.78623 -5.75932 0 6.78731 -5.75167 0 
6.78841 -5.74403 0 6.78959 -5.73637 0 6.79071 -5.72874 0 
6.79186 -5.72113 0 6.793 -5.71351 0 6.79417 -5.70591 0 
6.79537 -5.69832 0 6.79659 -5.69074 0 6.79781 -5.68316 0 
6.79901 -5.67559 0 6.80029 -5.66804 0 6.80158 -5.66046 0 
6.80284 -5.65291 0 6.80412 -5.64538 0 6.80543 -5.63785 0 
6.80676 -5.63034 0 6.80808 -5.62283 0 6.80939 -5.61532 0 
6.81077 -5.60784 0 6.81214 -5.60036 0 6.8135 -5.59288 0 
6.81496 -5.5854 0 6.81634 -5.57793 0 6.81778 -5.57049 0 
6.81921 -5.56305 0 6.82067 -5.55562 0 6.82211 -5.5482 0 
6.82359 -5.54079 0 6.82509 -5.53339 0 6.82658 -5.52599 0 
6.8281 -5.51861 0 6.82961 -5.51123 0 6.83119 -5.50384 0 
6.83275 -5.49648 0 6.8343 -5.48913 0 6.83588 -5.48179 0 
6.83749 -5.47446 0 6.83909 -5.46714 0 6.84071 -5.45983 0 
6.84232 -5.45252 0 6.84396 -5.44523 0 6.84563 -5.43794 0 
6.84733 -5.43065 0 6.84902 -5.42338 0 6.85073 -5.41613 0 
6.85243 -5.40889 0 6.85411 -5.40164 0 6.85587 -5.39442 0 
6.85762 -5.3872 0 6.85936 -5.37998 0 6.86112 -5.37277 0 
6.86291 -5.36558 0 6.86473 -5.35841 0 6.86654 -5.35123 0 
6.86833 -5.34406 0 6.87016 -5.33691 0 6.87201 -5.32976 0 
6.87388 -5.32263 0 6.87575 -5.31551 0 6.87761 -5.30838 0 
6.8795 -5.30128 0 6.8814 -5.29418 0 6.88334 -5.2871 0 
6.88527 -5.28002 0 6.88718 -5.27295 0 6.88916 -5.2659 0 
6.89113 -5.25885 0 6.89309 -5.25181 0 6.89507 -5.24478 0 
6.89708 -5.23776 0 6.89909 -5.23075 0 6.90111 -5.22375 0 
6.90312 -5.21676 0 6.90517 -5.20978 0 6.90724 -5.20281 0 
6.9093 -5.19585 0 6.91138 -5.1889 0 6.91349 -5.18197 0 
6.9156 -5.17504 0 6.91769 -5.16811 0 6.9198 -5.1612 0 
6.92195 -5.1543 0 6.92412 -5.14741 0 6.92628 -5.14053 0 
6.92843 -5.13366 0 6.93064 -5.12681 0 6.9328 -5.11995 0 
6.93503 -5.11312 0 6.93724 -5.10629 0 6.93946 -5.09946 0 
6.94168 -5.09265 0 6.94395 -5.08585 0 6.9462 -5.07906 0 
6.94847 -5.07228 0 6.95078 -5.06552 0 6.95306 -5.05875 0 
6.95538 -5.05201 0 6.95769 -5.04527 0 6.96002 -5.03854 0 
6.96234 -5.03182 0 6.96469 -5.02511 0 6.96706 -5.01841 0 
6.96943 -5.01172 0 6.97182 -5.00505 0 6.9742 -4.99837 0 
6.97661 -4.99172 0 6.97904 -4.98508 0 6.98146 -4.97844 0 
6.98387 -4.9718 0 6.98634 -4.96519 0 6.9888 -4.95859 0 
6.99126 -4.95199 0 6.99374 -4.9454 0 6.99624 -4.93883 0 
6.99873 -4.93227 0 7.00126 -4.92572 0 7.00376 -4.91917 0 
7.0063 -4.91263 0 7.00883 -4.90611 0 7.01138 -4.89959 0 
7.01396 -4.89309 0 7.01653 -4.8866 0 7.01911 -4.88011 0 
7.0217 -4.87364 0 7.02431 -4.86718 0 7.02694 -4.86073 0 
7.02957 -4.85429 0 7.03222 -4.84786 0 7.03486 -4.84144 0 
7.03753 -4.83503 0 7.04018 -4.82863 0 7.04286 -4.82224 0 
7.04557 -4.81586 0 7.04827 -4.80949 0 7.05096 -4.80313 0 
7.0537 -4.79679 0 7.0564 -4.79045 0 7.05917 -4.78412 0 
7.06192 -4.77781 0 7.06466 -4.7715 0 7.06743 -4.7652 0 
7.07023 -4.75892 0 7.07301 -4.75264 0 7.07583 -4.74638 0 
7.07867 -4.74013 0 7.08146 -4.73388 0 7.08431 -4.72765 0 
7.08715 -4.72143 0 7.09002 -4.71522 0 7.09288 -4.70901 0 
7.09576 -4.70282 0 7.09864 -4.69664 0 7.10153 -4.69047 0 
7.10443 -4.6843 0 7.10734 -4.67815 0 7.11029 -4.67202 0 
7.11322 -4.66589 0 7.11617 -4.65977 0 7.11912 -4.65366 0 
7.12209 -4.64757 0 7.12506 -4.64148 0 7.12804 -4.6354 0 
7.13106 -4.62934 0 7.13406 -4.62328 0 7.13709 -4.61724 0 
7.14011 -4.6112 0 7.14316 -4.60518 0 7.1462 -4.59916 0 
7.14926 -4.59316 0 7.15231 -4.58716 0 7.15538 -4.58118 0 
7.15849 -4.57521 0 7.16158 -4.56925 0 7.16471 -4.5633 0 
7.16782 -4.55736 0 7.17095 -4.55143 0 7.17408 -4.54551 0 
7.17723 -4.5396 0 7.18037 -4.53369 0 7.18354 -4.5278 0 
7.18673 -4.52193 0 7.18991 -4.51606 0 7.19312 -4.5102 0 
7.19632 -4.50436 0 7.19954 -4.49852 0 7.20276 -4.49269 0 
7.206 -4.48687 0 7.20923 -4.48107 0 7.21248 -4.47527 0 
7.21577 -4.46949 0 7.21904 -4.46371 0 7.22234 -4.45795 0 
7.22563 -4.4522 0 7.22895 -4.44646 0 7.23226 -4.44072 0 
7.23559 -4.435 0 7.23891 -4.42928 0 7.24226 -4.42358 0 
7.24563 -4.41789 0 7.249 -4.41221 0 7.25235 -4.40653 0 
7.25573 -4.40087 0 7.25914 -4.39522 0 7.26253 -4.38958 0 
7.26596 -4.38395 0 7.26937 -4.37833 0 7.27281 -4.37272 0 
7.27627 -4.36713 0 7.27973 -4.36154 0 7.28317 -4.35596 0 
7.28665 -4.35039 0 7.29014 -4.34484 0 7.29363 -4.33929 0 
7.29714 -4.33375 0 7.30065 -4.32822 0 7.30418 -4.32271 0 
7.3077 -4.3172 0 7.31125 -4.3117 0 7.31479 -4.30621 0 
7.31835 -4.30074 0 7.32194 -4.29528 0 7.32553 -4.28982 0 
7.32913 -4.28438 0 7.33273 -4.27895 0 7.33635 -4.27352 0 
7.33996 -4.26811 0 7.34361 -4.2627 0 7.34724 -4.25731 0 
7.35089 -4.25193 0 7.35454 -4.24655 0 7.35822 -4.24119 0 
7.36188 -4.23583 0 7.36557 -4.23048 0 7.36929 -4.22516 0 
7.373 -4.21983 0 7.37673 -4.21452 0 7.38046 -4.20922 0 
7.3842 -4.20393 0 7.38795 -4.19865 0 7.39171 -4.19338 0 
7.39547 -4.18811 0 7.39926 -4.18286 0 7.40303 -4.17761 0 
7.40684 -4.17238 0 7.41067 -4.16717 0 7.41448 -4.16195 0 
7.41829 -4.15675 0 7.42213 -4.15155 0 7.42599 -4.14638 0 
7.42985 -4.1412 0 7.43373 -4.13605 0 7.43759 -4.13089 0 
7.4415 -4.12575 0 7.44539 -4.12062 0 7.4493 -4.1155 0 