# vtk DataFile Version 3.0
vtk output
ASCII
DATASET POLYDATA
POINTS 5000 float
4.77161 -32.5974 0 8.13583 -32.3941 0 9.53794 -32.2986 0 
10.6157 -32.2216 0 11.5249 -32.1544 0 12.326 -32.0937 0 
13.05 -32.0376 0 13.7154 -31.9853 0 14.3342 -31.936 0 
14.9148 -31.8892 0 15.4632 -31.8445 0 15.9842 -31.8017 0 
16.4813 -31.7605 0 16.9574 -31.7208 0 17.4147 -31.6824 0 
17.8553 -31.6451 0 18.2806 -31.6089 0 18.6921 -31.5738 0 
19.0909 -31.5396 0 19.4781 -31.5063 0 19.8545 -31.4738 0 
20.2209 -31.442 0 20.5779 -31.4109 0 20.9262 -31.3805 0 
21.2664 -31.3507 0 21.5989 -31.3216 0 21.924 -31.2928 0 
22.2423 -31.2647 0 22.5541 -31.2371 0 22.8599 -31.21 0 
23.1597 -31.1833 0 23.4539 -31.157 0 23.7428 -31.1312 0 
24.0266 -31.1057 0 24.3056 -31.0806 0 24.5799 -31.0559 0 
24.8496 -31.0315 0 25.1152 -31.0074 0 25.3765 -30.9836 0 
25.6339 -30.9602 0 25.8876 -30.937 0 26.1374 -30.9142 0 
26.3838 -30.8915 0 26.6266 -30.8692 0 26.8662 -30.847 0 
27.1026 -30.8251 0 27.3358 -30.8035 0 27.5661 -30.7819 0 
27.7933 -30.7607 0 28.0178 -30.7396 0 28.2395 -30.7188 0 
28.4586 -30.6981 0 28.6751 -30.6776 0 28.889 -30.6573 0 
29.1004 -30.6371 0 29.3095 -30.6171 0 29.5163 -30.5973 0 
29.7208 -30.5776 0 29.9231 -30.5579 0 30.1232 -30.5385 0 
30.3213 -30.5191 0 30.5173 -30.5 0 30.7114 -30.4809 0 
30.9034 -30.4619 0 31.0936 -30.4431 0 31.2819 -30.4244 0 
31.4684 -30.4057 0 31.6531 -30.3872 0 31.8361 -30.3686 0 
32.0173 -30.3503 0 32.197 -30.332 0 32.3749 -30.3138 0 
32.5513 -30.2957 0 32.7261 -30.2777 0 32.8994 -30.2597 0 
33.0712 -30.2418 0 33.2416 -30.224 0 33.4105 -30.2062 0 
33.578 -30.1885 0 33.7441 -30.1708 0 33.9088 -30.1532 0 
34.0723 -30.1356 0 34.2345 -30.1181 0 34.3953 -30.1007 0 
34.5548 -30.0833 0 34.7132 -30.0659 0 34.8703 -30.0486 0 
35.0263 -30.0313 0 35.1811 -30.0141 0 35.3347 -29.9968 0 
35.4872 -29.9796 0 35.6386 -29.9624 0 35.7889 -29.9453 0 
35.9381 -29.9282 0 36.0862 -29.9111 0 36.2334 -29.894 0 
36.3794 -29.877 0 36.5245 -29.86 0 36.6686 -29.843 0 
36.8118 -29.8259 0 36.9539 -29.8089 0 37.0951 -29.792 0 
37.2354 -29.775 0 37.3748 -29.7581 0 37.5133 -29.7411 0 
37.6509 -29.7242 0 37.7876 -29.7073 0 37.9234 -29.6904 0 
38.0584 -29.6735 0 38.1927 -29.6566 0 38.326 -29.6396 0 
38.4585 -29.6226 0 38.5902 -29.6057 0 38.7212 -29.5888 0 
38.8514 -29.5719 0 38.9808 -29.555 0 39.1095 -29.538 0 
39.2374 -29.5211 0 39.3645 -29.5042 0 39.4909 -29.4872 0 
39.6167 -29.4701 0 39.7416 -29.4532 0 39.866 -29.4362 0 
39.9896 -29.4192 0 40.1125 -29.4022 0 40.2348 -29.3852 0 
40.3565 -29.3681 0 40.4774 -29.3511 0 40.5977 -29.334 0 
40.7174 -29.3169 0 40.8364 -29.2998 0 40.9549 -29.2826 0 
41.0727 -29.2655 0 41.1899 -29.2483 0 41.3065 -29.2311 0 
41.4226 -29.2139 0 41.5379 -29.1967 0 41.6528 -29.1795 0 
41.7671 -29.1622 0 41.8808 -29.1449 0 41.994 -29.1276 0 
42.1065 -29.1102 0 42.2187 -29.0928 0 42.3302 -29.0755 0 
42.4412 -29.058 0 42.5517 -29.0406 0 42.6616 -29.0232 0 
42.7711 -29.0057 0 42.88 -28.9882 0 42.9884 -28.9706 0 
43.0963 -28.9531 0 43.2038 -28.9354 0 43.3107 -28.9177 0 
43.4173 -28.9001 0 43.5232 -28.8824 0 43.6288 -28.8647 0 
43.7338 -28.847 0 43.8384 -28.8292 0 43.9425 -28.8114 0 
44.0462 -28.7936 0 44.1495 -28.7757 0 44.2523 -28.7578 0 
44.3547 -28.7398 0 44.4566 -28.7218 0 44.5581 -28.7038 0 
44.6592 -28.6858 0 44.7599 -28.6678 0 44.8602 -28.6497 0 
44.96 -28.6315 0 45.0594 -28.6134 0 45.1584 -28.5952 0 
45.2571 -28.577 0 45.3553 -28.5586 0 45.4531 -28.5403 0 
45.5506 -28.522 0 45.6477 -28.5037 0 45.7444 -28.4853 0 
45.8407 -28.4669 0 45.9367 -28.4484 0 46.0322 -28.4299 0 
46.1274 -28.4114 0 46.2223 -28.3928 0 46.3167 -28.3742 0 
46.4109 -28.3555 0 46.5047 -28.3368 0 46.5982 -28.3181 0 
46.6912 -28.2993 0 46.7839 -28.2806 0 46.8764 -28.2618 0 
46.9684 -28.2429 0 47.0601 -28.224 0 47.1515 -28.2051 0 
47.2426 -28.1861 0 47.3333 -28.167 0 47.4237 -28.148 0 
47.5138 -28.1289 0 47.6037 -28.1098 0 47.6931 -28.0907 0 
47.7823 -28.0715 0 47.8711 -28.0523 0 47.9596 -28.033 0 
48.0479 -28.0137 0 48.1359 -27.9944 0 48.2235 -27.975 0 
48.3109 -27.9555 0 48.3979 -27.9361 0 48.4846 -27.9166 0 
48.5711 -27.8971 0 48.6573 -27.8776 0 48.7432 -27.858 0 
48.8288 -27.8384 0 48.9142 -27.8187 0 48.9992 -27.799 0 
49.0841 -27.7793 0 49.1685 -27.7594 0 49.2528 -27.7396 0 
49.3368 -27.7197 0 49.4204 -27.6999 0 49.5039 -27.6799 0 
49.587 -27.66 0 49.67 -27.64 0 49.7526 -27.62 0 
49.8351 -27.5999 0 49.9172 -27.5798 0 49.9991 -27.5595 0 
50.0807 -27.5394 0 50.1622 -27.5191 0 50.2433 -27.4989 0 
50.3242 -27.4786 0 50.4049 -27.4583 0 50.4853 -27.4379 0 
50.5655 -27.4175 0 50.6455 -27.3971 0 50.7252 -27.3766 0 
50.8046 -27.3561 0 50.8839 -27.3354 0 50.9628 -27.3149 0 
51.0417 -27.2942 0 51.1202 -27.2736 0 51.1985 -27.2529 0 
51.2766 -27.2322 0 51.3545 -27.2114 0 51.4321 -27.1906 0 
51.5095 -27.1698 0 51.5868 -27.1489 0 51.6637 -27.1279 0 
51.7405 -27.107 0 51.817 -27.086 0 51.8934 -27.065 0 
51.9696 -27.0439 0 52.0455 -27.0228 0 52.1212 -27.0017 0 
52.1967 -26.9806 0 52.272 -26.9594 0 52.3471 -26.9381 0 
52.422 -26.9169 0 52.4967 -26.8955 0 52.5712 -26.8742 0 
52.6455 -26.8528 0 52.7196 -26.8314 0 52.7935 -26.81 0 
52.8671 -26.7885 0 52.9407 -26.767 0 53.014 -26.7454 0 
53.0871 -26.7239 0 53.16 -26.7023 0 53.2328 -26.6805 0 
53.3053 -26.6588 0 53.3777 -26.6371 0 53.4498 -26.6154 0 
53.5219 -26.5936 0 53.5937 -26.5718 0 53.6653 -26.55 0 
53.7368 -26.5281 0 53.8081 -26.5062 0 53.8791 -26.4843 0 
53.95 -26.4623 0 54.0207 -26.4402 0 54.0912 -26.4181 0 
54.1617 -26.3961 0 54.2319 -26.374 0 54.3019 -26.3518 0 
54.3717 -26.3296 0 54.4414 -26.3074 0 54.5109 -26.2852 0 
54.5803 -26.2629 0 54.6494 -26.2406 0 54.7184 -26.2182 0 
54.7873 -26.1958 0 54.8559 -26.1734 0 54.9244 -26.151 0 
54.9927 -26.1286 0 55.0609 -26.1061 0 55.129 -26.0836 0 
55.1969 -26.061 0 55.2645 -26.0384 0 55.332 -26.0158 0 
55.3994 -25.9931 0 55.4667 -25.9704 0 55.5337 -25.9477 0 
55.6006 -25.925 0 55.6673 -25.9022 0 55.734 -25.8794 0 
55.8003 -25.8566 0 55.8666 -25.8337 0 55.9327 -25.8108 0 
55.9988 -25.7879 0 56.0645 -25.765 0 56.1302 -25.7419 0 
56.1958 -25.7189 0 56.2612 -25.6959 0 56.3263 -25.6728 0 
56.3915 -25.6497 0 56.4564 -25.6266 0 56.5212 -25.6035 0 
56.5858 -25.5803 0 56.6503 -25.5571 0 56.7147 -25.5339 0 
56.7789 -25.5105 0 56.8429 -25.4872 0 56.9069 -25.4639 0 
56.9707 -25.4405 0 57.0343 -25.4172 0 57.0978 -25.3938 0 
57.1612 -25.3703 0 57.2244 -25.3469 0 57.2875 -25.3234 0 
57.3505 -25.2999 0 57.4133 -25.2763 0 57.4759 -25.2527 0 
57.5385 -25.2291 0 57.6009 -25.2055 0 57.6632 -25.1818 0 
57.7253 -25.1582 0 57.7873 -25.1345 0 57.8492 -25.1108 0 
57.911 -25.087 0 57.9726 -25.0632 0 58.0341 -25.0395 0 
58.0954 -25.0155 0 58.1566 -24.9917 0 58.2177 -24.9678 0 
58.2787 -24.9439 0 58.3395 -24.92 0 58.4002 -24.896 0 
58.4608 -24.872 0 58.5213 -24.848 0 58.5816 -24.824 0 
58.6418 -24.8 0 58.7019 -24.7758 0 58.7618 -24.7517 0 
58.8217 -24.7276 0 58.8813 -24.7034 0 58.941 -24.6793 0 
59.0004 -24.6551 0 59.0597 -24.6308 0 59.1189 -24.6066 0 
59.178 -24.5823 0 59.237 -24.5581 0 59.2959 -24.5337 0 
59.3546 -24.5093 0 59.4132 -24.4849 0 59.4717 -24.4606 0 
59.5301 -24.4362 0 59.5884 -24.4117 0 59.6466 -24.3873 0 
59.7046 -24.3628 0 59.7625 -24.3383 0 59.8203 -24.3138 0 
59.878 -24.2893 0 59.9355 -24.2646 0 59.993 -24.24 0 
60.0503 -24.2154 0 60.1075 -24.1908 0 60.1646 -24.1662 0 
60.2216 -24.1415 0 60.2785 -24.1168 0 60.3352 -24.0921 0 
60.3919 -24.0674 0 60.4485 -24.0426 0 60.5049 -24.0179 0 
60.5612 -23.993 0 60.6175 -23.9682 0 60.6736 -23.9433 0 
60.7295 -23.9185 0 60.7854 -23.8936 0 60.8412 -23.8687 0 
60.8969 -23.8438 0 60.9524 -23.8189 0 61.0079 -23.7939 0 
61.0632 -23.769 0 61.1185 -23.7439 0 61.1736 -23.7189 0 
61.2287 -23.6938 0 61.2836 -23.6688 0 61.3383 -23.6437 0 
61.3931 -23.6186 0 61.4477 -23.5935 0 61.5022 -23.5684 0 
61.5565 -23.5433 0 61.6109 -23.5181 0 61.6651 -23.4928 0 
61.7191 -23.4676 0 61.7731 -23.4424 0 61.827 -23.4172 0 
61.8807 -23.3919 0 61.9344 -23.3667 0 61.9879 -23.3414 0 
62.0414 -23.3161 0 62.0948 -23.2908 0 62.148 -23.2654 0 
62.2012 -23.2401 0 62.2543 -23.2146 0 62.3073 -23.1892 0 
62.3601 -23.1638 0 62.4128 -23.1384 0 62.4655 -23.1129 0 
62.5181 -23.0875 0 62.5705 -23.062 0 62.623 -23.0365 0 
62.6752 -23.011 0 62.7273 -22.9855 0 62.7795 -22.9599 0 
62.8314 -22.9343 0 62.8833 -22.9088 0 62.9351 -22.8832 0 
62.9868 -22.8576 0 63.0383 -22.832 0 63.0898 -22.8063 0 
63.1413 -22.7807 0 63.1925 -22.755 0 63.2438 -22.7294 0 
63.2949 -22.7037 0 63.3459 -22.6779 0 63.3968 -22.6521 0 
63.4477 -22.6264 0 63.4984 -22.6007 0 63.549 -22.5749 0 
63.5996 -22.5491 0 63.65 -22.5233 0 63.7004 -22.4975 0 
63.7507 -22.4717 0 63.8009 -22.4459 0 63.8509 -22.4199 0 
63.9009 -22.3941 0 63.9508 -22.3682 0 64.0006 -22.3423 0 
64.0504 -22.3164 0 64.0999 -22.2905 0 64.1495 -22.2646 0 
64.199 -22.2386 0 64.2483 -22.2127 0 64.2976 -22.1867 0 
64.3468 -22.1606 0 64.3958 -22.1347 0 64.4448 -22.1086 0 
64.4937 -22.0826 0 64.5426 -22.0566 0 64.5913 -22.0306 0 
64.6399 -22.0045 0 64.6885 -21.9784 0 64.7369 -21.9524 0 
64.7853 -21.9263 0 64.8336 -21.9002 0 64.8818 -21.874 0 
64.9299 -21.8478 0 64.9779 -21.8217 0 65.0259 -21.7956 0 
65.0737 -21.7694 0 65.1215 -21.7432 0 65.1692 -21.717 0 
65.2167 -21.6909 0 65.2643 -21.6647 0 65.3117 -21.6384 0 
65.359 -21.6121 0 65.4063 -21.5859 0 65.4534 -21.5596 0 
65.5005 -21.5334 0 65.5474 -21.5071 0 65.5943 -21.4808 0 
65.6412 -21.4545 0 65.6879 -21.4282 0 65.7346 -21.4019 0 
65.7811 -21.3756 0 65.8276 -21.3493 0 65.874 -21.3228 0 
65.9203 -21.2965 0 65.9666 -21.2701 0 66.0126 -21.2438 0 
66.0587 -21.2174 0 66.1047 -21.191 0 66.1506 -21.1646 0 
66.1964 -21.1382 0 66.2421 -21.1118 0 66.2878 -21.0854 0 
66.3334 -21.0588 0 66.3789 -21.0324 0 66.4243 -21.0059 0 
66.4696 -20.9795 0 66.5149 -20.953 0 66.56 -20.9265 0 
66.605 -20.9 0 66.6501 -20.8736 0 66.695 -20.8471 0 
66.7398 -20.8205 0 66.7846 -20.794 0 66.8292 -20.7674 0 
66.8739 -20.7409 0 66.9183 -20.7143 0 66.9628 -20.6878 0 
67.0071 -20.6612 0 67.0514 -20.6346 0 67.0956 -20.6081 0 
67.1397 -20.5815 0 67.1837 -20.5549 0 67.2277 -20.5283 0 
67.2715 -20.5016 0 67.3153 -20.475 0 67.3591 -20.4484 0 
[...]
POINT_DATA 5000
VECTORS velocity double
13.732 -8.13067 0 14.054 -7.55626 0 14.2147 -7.32051 0 
14.3455 -7.14294 0 14.4594 -6.99649 0 14.5616 -6.87057 0 
14.6547 -6.75972 0 14.7406 -6.66053 0 14.8202 -6.57085 0 
14.8945 -6.48916 0 14.9639 -6.41432 0 15.029 -6.34544 0 
15.0902 -6.28184 0 15.1478 -6.22298 0 15.202 -6.16838 0 
15.253 -6.11766 0 15.3011 -6.07054 0 15.3464 -6.02665 0 
15.3892 -5.9858 0 15.4294 -5.94777 0 15.4672 -5.91237 0 
15.5029 -5.87942 0 15.5364 -5.84878 0 15.5678 -5.82032 0 
15.5972 -5.79389 0 15.6248 -5.7694 0 15.6506 -5.74677 0 
15.6746 -5.72585 0 15.697 -5.70657 0 15.7177 -5.68884 0 
15.7369 -5.67262 0 15.7546 -5.65781 0 15.7709 -5.64435 0 
15.7857 -5.63218 0 15.7992 -5.62125 0 15.8114 -5.61149 0 
15.8224 -5.60286 0 15.8321 -5.59534 0 15.8406 -5.58882 0 
15.848 -5.5833 0 15.8543 -5.57872 0 15.8595 -5.57506 0 
15.8637 -5.57227 0 15.8669 -5.57032 0 15.8691 -5.56918 0 
15.8703 -5.56881 0 15.8706 -5.56919 0 15.87 -5.57031 0 
15.8686 -5.57209 0 15.8663 -5.57453 0 15.8632 -5.57761 0 
15.8593 -5.5813 0 15.8546 -5.58558 0 15.8492 -5.59042 0 
15.8431 -5.59581 0 15.8362 -5.60173 0 15.8287 -5.60815 0 
15.8205 -5.61505 0 15.8116 -5.62245 0 15.8022 -5.63027 0 
15.7921 -5.63853 0 15.7814 -5.6472 0 15.7701 -5.65627 0 
15.7583 -5.66573 0 15.7459 -5.67557 0 15.7331 -5.68575 0 
15.7197 -5.69629 0 15.7058 -5.70715 0 15.6914 -5.71834 0 
15.6765 -5.72983 0 15.6612 -5.74161 0 15.6454 -5.75367 0 
15.6292 -5.766 0 15.6126 -5.77859 0 15.5956 -5.79143 0 
15.5782 -5.80451 0 15.5604 -5.81782 0 15.5422 -5.83135 0 
15.5237 -5.84509 0 15.5048 -5.85905 0 15.4855 -5.87319 0 
15.466 -5.88751 0 15.4461 -5.90202 0 15.4259 -5.91669 0 
15.4054 -5.93152 0 15.3846 -5.94651 0 15.3635 -5.96164 0 
15.3421 -5.97692 0 15.3205 -5.99233 0 15.2986 -6.00788 0 
15.2765 -6.02354 0 15.2541 -6.03931 0 15.2314 -6.0552 0 
15.2086 -6.07119 0 15.1855 -6.08727 0 15.1622 -6.10345 0 
15.1387 -6.11971 0 15.115 -6.13606 0 15.0911 -6.15248 0 
15.067 -6.16899 0 15.0428 -6.18555 0 15.0183 -6.20217 0 
14.9937 -6.21885 0 14.9689 -6.23559 0 14.944 -6.25237 0 
14.9189 -6.26921 0 14.8936 -6.28609 0 14.8683 -6.30299 0 
14.8427 -6.31993 0 14.8171 -6.33691 0 14.7913 -6.35393 0 
14.7654 -6.37094 0 14.7394 -6.38799 0 14.7132 -6.40505 0 
14.687 -6.42213 0 14.6606 -6.43922 0 14.6342 -6.45631 0 
14.6076 -6.47341 0 14.581 -6.4905 0 14.5543 -6.5076 0 
14.5275 -6.5247 0 14.5006 -6.54178 0 14.4736 -6.55886 0 
14.4466 -6.57593 0 14.4195 -6.59298 0 14.3923 -6.61001 0 
14.3651 -6.62703 0 14.3378 -6.64403 0 14.3105 -6.66099 0 
14.2831 -6.67795 0 14.2556 -6.69486 0 14.2282 -6.71176 0 
14.2006 -6.72862 0 14.1731 -6.74544 0 14.1454 -6.76224 0 
14.1178 -6.779 0 14.0901 -6.79571 0 14.0624 -6.81238 0 
14.0347 -6.82901 0 14.007 -6.8456 0 13.9792 -6.86215 0 
13.9514 -6.87864 0 13.9236 -6.89511 0 13.8958 -6.91151 0 
13.868 -6.92786 0 13.8401 -6.94416 0 13.8123 -6.9604 0 
13.7845 -6.97659 0 13.7566 -6.99273 0 13.7288 -7.0088 0 
13.7009 -7.02482 0 13.6731 -7.04078 0 13.6453 -7.05667 0 
13.6175 -7.07252 0 13.5897 -7.08828 0 13.5619 -7.10399 0 
13.5341 -7.11963 0 13.5063 -7.13521 0 13.4785 -7.15072 0 
13.4508 -7.16617 0 13.4231 -7.18155 0 13.3954 -7.19686 0 
13.3677 -7.2121 0 13.3401 -7.22726 0 13.3125 -7.24235 0 
13.2849 -7.25737 0 13.2573 -7.27232 0 13.2298 -7.2872 0 
13.2023 -7.30199 0 13.1748 -7.31672 0 13.1474 -7.33137 0 
13.12 -7.34595 0 13.0927 -7.36043 0 13.0654 -7.37484 0 
13.0381 -7.38919 0 13.0108 -7.40345 0 12.9836 -7.41763 0 
12.9565 -7.43173 0 12.9294 -7.44575 0 12.9024 -7.45968 0 
12.8753 -7.47355 0 12.8484 -7.48732 0 12.8215 -7.50101 0 
12.7946 -7.51462 0 12.7678 -7.52815 0 12.741 -7.5416 0 
12.7143 -7.55495 0 12.6877 -7.56823 0 12.661 -7.58143 0 
12.6345 -7.59453 0 12.608 -7.60756 0 12.5816 -7.62049 0 
12.5552 -7.63334 0 12.5289 -7.64611 0 12.5027 -7.65878 0 
12.4765 -7.67137 0 12.4503 -7.68388 0 12.4242 -7.6963 0 
12.3982 -7.70863 0 12.3723 -7.72088 0 12.3464 -7.73303 0 
12.3206 -7.74511 0 12.2948 -7.75709 0 12.2691 -7.76898 0 
12.2435 -7.78078 0 12.2179 -7.7925 0 12.1925 -7.80412 0 
12.167 -7.81567 0 12.1417 -7.82711 0 12.1164 -7.83848 0 
12.0912 -7.84974 0 12.066 -7.86093 0 12.041 -7.87203 0 
12.0159 -7.88304 0 11.991 -7.89394 0 11.9662 -7.90477 0 
11.9414 -7.91551 0 11.9167 -7.92615 0 11.892 -7.93671 0 
11.8675 -7.94718 0 11.8429 -7.95757 0 11.8185 -7.96785 0 
11.7942 -7.97806 0 11.7699 -7.98817 0 11.7457 -7.99818 0 
11.7216 -8.00811 0 11.6976 -8.01796 0 11.6736 -8.02771 0 
11.6497 -8.03737 0 11.6259 -8.04695 0 11.6021 -8.05644 0 
11.5785 -8.06583 0 11.5549 -8.07514 0 11.5314 -8.08436 0 
11.5079 -8.09349 0 11.4846 -8.10252 0 11.4614 -8.11147 0 
11.4382 -8.12033 0 11.415 -8.12911 0 11.392 -8.13778 0 
11.3691 -8.14638 0 11.3462 -8.15489 0 11.3234 -8.16331 0 
11.3007 -8.17163 0 11.2781 -8.17988 0 11.2556 -8.18802 0 
11.2331 -8.19608 0 11.2107 -8.20407 0 11.1884 -8.21196 0 
11.1661 -8.21976 0 11.144 -8.22747 0 11.1219 -8.23511 0 
11.1 -8.24264 0 11.0781 -8.2501 0 11.0563 -8.25746 0 
11.0345 -8.26474 0 11.0129 -8.27193 0 10.9913 -8.27904 0 
10.9698 -8.28606 0 10.9484 -8.293 0 10.9271 -8.29984 0 
10.9059 -8.3066 0 10.8847 -8.31328 0 10.8636 -8.31987 0 
10.8426 -8.32638 0 10.8217 -8.3328 0 10.8009 -8.33912 0 
10.7802 -8.34537 0 10.7595 -8.35154 0 10.739 -8.35762 0 
10.7184 -8.36363 0 10.698 -8.36954 0 10.6777 -8.37537 0 
10.6574 -8.38112 0 10.6373 -8.38679 0 10.6172 -8.39236 0 
10.5972 -8.39786 0 10.5773 -8.40327 0 10.5575 -8.4086 0 
10.5378 -8.41385 0 10.5181 -8.41902 0 10.4985 -8.42411 0 
10.479 -8.42911 0 10.4596 -8.43404 0 10.4403 -8.43888 0 
10.421 -8.44364 0 10.4018 -8.44832 0 10.3828 -8.4529 0 
10.3638 -8.45743 0 10.3449 -8.46186 0 10.326 -8.46623 0 
10.3073 -8.47051 0 10.2886 -8.47471 0 10.27 -8.47884 0 
10.2515 -8.48288 0 10.2331 -8.48684 0 10.2148 -8.49073 0 
10.1966 -8.49452 0 10.1783 -8.49826 0 10.1603 -8.50191 0 
10.1423 -8.50548 0 10.1243 -8.50899 0 10.1065 -8.51241 0 
10.0887 -8.51575 0 10.071 -8.51902 0 10.0534 -8.52221 0 
10.0359 -8.52533 0 10.0185 -8.52837 0 10.0011 -8.53132 0 
9.98386 -8.53421 0 9.96666 -8.53703 0 9.94956 -8.53977 0 
9.93251 -8.54244 0 9.91554 -8.54503 0 9.89867 -8.54755 0 
9.88188 -8.55 0 9.86519 -8.55237 0 9.84854 -8.55467 0 
9.83204 -8.55688 0 9.81557 -8.55903 0 9.79916 -8.56112 0 
9.78284 -8.56313 0 9.76661 -8.56506 0 9.75047 -8.56693 0 
9.73439 -8.56873 0 9.7184 -8.57045 0 9.70249 -8.5721 0 
9.68664 -8.57369 0 9.67093 -8.57519 0 9.65526 -8.57663 0 
9.63964 -8.57801 0 9.62412 -8.57932 0 9.60865 -8.58056 0 
9.59331 -8.58172 0 9.57802 -8.58282 0 9.56279 -8.58385 0 
9.54765 -8.58482 0 9.53261 -8.58571 0 9.51761 -8.58655 0 
9.50275 -8.58729 0 9.48795 -8.58798 0 9.47319 -8.58861 0 
9.45853 -8.58917 0 9.44391 -8.58967 0 9.4294 -8.5901 0 
9.41494 -8.59047 0 9.40057 -8.59077 0 9.3863 -8.591 0 
9.37208 -8.59118 0 9.35799 -8.59127 0 9.34391 -8.59131 0 
9.3299 -8.5913 0 9.31601 -8.59121 0 9.30214 -8.59107 0 
9.28839 -8.59085 0 9.27471 -8.59058 0 9.26108 -8.59025 0 
9.24754 -8.58985 0 9.23406 -8.5894 0 9.22067 -8.58887 0 
9.20738 -8.58828 0 9.19413 -8.58764 0 9.18095 -8.58694 0 
9.16785 -8.58617 0 9.15481 -8.58535 0 9.14183 -8.58448 0 
9.12894 -8.58354 0 9.11613 -8.58253 0 9.10339 -8.58147 0 
9.0907 -8.58036 0 9.07815 -8.57916 0 9.06561 -8.57793 0 
9.05316 -8.57664 0 9.04077 -8.57529 0 9.02847 -8.57388 0 
9.01622 -8.57242 0 9.00403 -8.5709 0 8.99193 -8.56933 0 
8.97989 -8.56769 0 8.9679 -8.56601 0 8.956 -8.56427 0 
8.94425 -8.56244 0 8.93246 -8.5606 0 8.92076 -8.55869 0 
8.90916 -8.55672 0 8.89761 -8.55471 0 8.88612 -8.55264 0 
8.87468 -8.55052 0 8.86333 -8.54834 0 8.85204 -8.54611 0 
8.84084 -8.54383 0 8.82974 -8.54147 0 8.81865 -8.53909 0 
8.80761 -8.53665 0 8.79667 -8.53416 0 8.78581 -8.53162 0 
8.77497 -8.52902 0 8.76423 -8.52638 0 8.75354 -8.52369 0 
8.74294 -8.52094 0 8.73235 -8.51815 0 8.72191 -8.51529 0 
8.71151 -8.51239 0 8.70112 -8.50945 0 8.69083 -8.50646 0 
8.68062 -8.50342 0 8.67044 -8.50033 0 8.66034 -8.4972 0 
8.6503 -8.49401 0 8.64031 -8.49078 0 8.63041 -8.4875 0 
8.62057 -8.48418 0 8.61082 -8.48079 0 8.60109 -8.47737 0 
8.59143 -8.47391 0 8.58184 -8.4704 0 8.57229 -8.46684 0 
8.5628 -8.46324 0 8.5534 -8.4596 0 8.54401 -8.45591 0 
8.53472 -8.45217 0 8.52551 -8.44839 0 8.51637 -8.44455 0 
8.50727 -8.44068 0 8.49822 -8.43677 0 8.48922 -8.43282 0 
8.48028 -8.42882 0 8.47142 -8.42478 0 8.46261 -8.4207 0 
8.45382 -8.41658 0 8.44516 -8.41241 0 8.43651 -8.40821 0 
8.42791 -8.40396 0 8.41945 -8.39965 0 8.41099 -8.39532 0 
8.40259 -8.39095 0 8.39423 -8.38654 0 8.38595 -8.38209 0 
8.3777 -8.3776 0 8.36953 -8.37307 0 8.36141 -8.3685 0 
8.35335 -8.36389 0 8.34534 -8.35924 0 8.33745 -8.35454 0 
8.32954 -8.34981 0 8.32171 -8.34505 0 8.31394 -8.34025 0 
8.30617 -8.33541 0 8.29853 -8.33054 0 8.2909 -8.32563 0 
8.28333 -8.32068 0 8.27584 -8.31569 0 8.26836 -8.31067 0 
8.26101 -8.3056 0 8.25367 -8.30051 0 8.24637 -8.29538 0 
8.23913 -8.29021 0 8.23194 -8.28502 0 8.22479 -8.27978 0 
8.21772 -8.27452 0 8.21068 -8.26921 0 8.20371 -8.26388 0 
8.19679 -8.25851 0 8.18989 -8.25311 0 8.18312 -8.24765 0 
8.17635 -8.24218 0 8.16963 -8.23668 0 8.16295 -8.23114 0 
8.15636 -8.22558 0 8.14978 -8.21998 0 8.14324 -8.21434 0 
8.1368 -8.20868 0 8.13036 -8.20299 0 8.124 -8.19726 0 
8.11775 -8.19149 0 8.11145 -8.1857 0 8.10524 -8.17988 0 
8.09907 -8.17404 0 8.09296 -8.16816 0 8.08688 -8.16225 0 
8.08086 -8.15632 0 8.07488 -8.15035 0 8.06895 -8.14436 0 
8.06305 -8.13833 0 8.05721 -8.13228 0 8.0515 -8.12618 0 
8.04575 -8.12007 0 8.04005 -8.11393 0 8.03443 -8.10777 0 
8.02881 -8.10157 0 8.02325 -8.09536 0 8.01776 -8.08911 0 
8.01229 -8.08284 0 8.00689 -8.07654 0 8.00151 -8.07021 0 
7.99621 -8.06384 0 7.99095 -8.05746 0 7.98569 -8.05106 0 
7.98052 -8.04463 0 7.97536 -8.03817 0 7.97028 -8.0317 0 
7.96523 -8.02519 0 7.9602 -8.01866 0 7.95521 -8.01211 0 
7.95031 -8.00553 0 7.94541 -7.99893 0 7.94064 -7.99228 0 
7.93582 -7.98563 0 7.93108 -7.97896 0 7.92636 -7.97227 0 
7.92171 -7.96555 0 7.91707 -7.95881 0 7.91248 -7.95204 0 
7.90795 -7.94526 0 7.90344 -7.93845 0 7.89897 -7.93162 0 
7.89463 -7.92475 0 7.89024 -7.91787 0 7.88591 -7.91098 0 
7.8816 -7.90406 0 7.87734 -7.89713 0 7.87312 -7.89017 0 
7.86895 -7.88319 0 7.86482 -7.8762 0 7.86072 -7.86918 0 
7.85667 -7.86214 0 7.85271 -7.85506 0 7.84874 -7.84799 0 
7.84478 -7.84089 0 7.8409 -7.83377 0 7.83705 -7.82664 0 
7.83321 -7.81949 0 7.82944 -7.81232 0 7.82569 -7.80512 0 
7.82197 -7.79791 0 7.81832 -7.79069 0 7.81469 -7.78345 0 
7.81114 -7.77616 0 7.80758 -7.76888 0 7.80406 -7.76159 0 
7.80058 -7.75427 0 7.79711 -7.74694 0 7.79371 -7.7396 0 
7.79035 -7.73223 0 7.78699 -7.72485 0 7.78371 -7.71746 0 
7.78044 -7.71005 0 7.77725 -7.7026 0 7.77408 -7.69516 0 
7.77092 -7.6877 0 7.7678 -7.68023 0 7.76471 -7.67274 0 
7.76163 -7.66523 0 7.75863 -7.65772 0 7.75566 -7.65018 0 
7.75269 -7.64263 0 7.74976 -7.63507 0 7.74695 -7.62748 0 
7.74411 -7.61989 0 7.74128 -7.61229 0 7.73851 -7.60467 0 
7.73578 -7.59704 0 7.73303 -7.5894 0 7.73037 -7.58174 0 
7.72771 -7.57407 0 7.72512 -7.5664 0 7.72254 -7.5587 0 
7.71998 -7.551 0 7.71751 -7.54325 0 7.71503 -7.53553 0 
7.71256 -7.52778 0 7.71015 -7.52003 0 7.70775 -7.51227 0 
7.70538 -7.50449 0 7.70309 -7.4967 0 7.70079 -7.48891 0 
7.6985 -7.48109 0 7.69627 -7.47327 0 7.69413 -7.46542 0 
7.69195 -7.45758 0 7.6898 -7.44973 0 7.68768 -7.44187 0 
7.6856 -7.434 0 7.68356 -7.42611 0 7.68155 -7.41823 0 
7.67954 -7.41033 0 7.6776 -7.40242 0 7.67566 -7.3945 0 
7.67376 -7.38657 0 7.67193 -7.37861 0 7.6701 -7.37067 0 
7.66826 -7.36271 0 7.66646 -7.35475 0 7.66473 -7.34678 0 
7.66299 -7.3388 0 7.6613 -7.33082 0 7.6596 -7.32282 0 
7.65796 -7.31482 0 7.65633 -7.30681 0 7.65479 -7.29877 0 
7.65323 -7.29074 0 7.6517 -7.28271 0 7.6502 -7.27468 0 
7.6487 -7.26663 0 7.64727 -7.25858 0 7.64584 -7.25052 0 
7.64444 -7.24246 0 7.64308 -7.23439 0 7.64171 -7.2263 0 
7.64038 -7.21822 0 7.63915 -7.21011 0 7.63786 -7.20201 0 
7.63662 -7.19391 0 7.63541 -7.18581 0 7.63421 -7.17769 0 
7.63304 -7.16957 0 7.6319 -7.16145 0 7.63079 -7.15332 0 
7.62971 -7.14519 0 7.62863 -7.13705 0 7.62764 -7.12889 0 
7.62662 -7.12074 0 7.62564 -7.11259 0 7.62468 -7.10444 0 
7.62373 -7.09628 0 7.62281 -7.08811 0 7.62191 -7.07995 0 
7.62106 -7.07178 0 7.62019 -7.0636 0 7.6194 -7.05543 0 
7.6186 -7.04725 0 7.61788 -7.03904 0 7.61711 -7.03084 0 
7.6164 -7.02266 0 7.61569 -7.01446 0 7.61501 -7.00627 0 
7.61436 -6.99807 0 7.61371 -6.98986 0 7.61311 -6.98166 0 
7.61252 -6.97345 0 7.61193 -6.96524 0 7.61144 -6.95701 0 
7.61091 -6.94879 0 7.61044 -6.94058 0 7.60996 -6.93237 0 
7.60948 -6.92414 0 7.60907 -6.91593 0 7.60865 -6.9077 0 
7.60826 -6.89948 0 7.6079 -6.89126 0 7.60753 -6.88303 0 
7.60725 -6.87478 0 7.60694 -6.86655 0 7.60667 -6.85832 0 
7.60642 -6.8501 0 7.60617 -6.84186 0 7.60595 -6.83363 0 
7.60575 -6.82541 0 7.60556 -6.81717 0 7.60541 -6.80894 0 
7.60528 -6.80071 0 7.60513 -6.79247 0 7.60509 -6.78422 0 
7.60501 -6.77599 0 7.60495 -6.76776 0 7.60492 -6.75953 0 
7.60492 -6.7513 0 7.60491 -6.74307 0 7.60493 -6.73484 0 
7.60498 -6.72661 0 7.60502 -6.71838 0 7.60509 -6.71015 0 
7.60524 -6.70191 0 7.60537 -6.69368 0 7.60549 -6.68546 0 
7.60564 -6.67723 0 7.60582 -6.66901 0 7.60603 -6.6608 0 
7.60623 -6.65258 0 7.60645 -6.64436 0 7.60671 -6.63615 0 
7.60696 -6.62793 0 7.60727 -6.61973 0 7.60762 -6.6115 0 
7.60792 -6.60328 0 7.60828 -6.59508 0 7.60863 -6.58688 0 
7.60902 -6.57868 0 7.60938 -6.57048 0 7.60982 -6.56229 0 
7.61024 -6.5541 0 7.61067 -6.5459 0 7.61115 -6.53772 0 
7.61166 -6.52951 0 7.61217 -6.52133 0 7.61266 -6.51314 0 
7.61322 -6.50498 0 7.61377 -6.4968 0 7.61431 -6.48863 0 
7.61491 -6.48047 0 7.61551 -6.47231 0 7.61613 -6.46415 0 
7.61674 -6.45599 0 7.61746 -6.44782 0 7.61813 -6.43967 0 
7.61878 -6.43152 0 7.6195 -6.42339 0 7.62021 -6.41525 0 
7.62092 -6.40711 0 7.62168 -6.39898 0 7.62243 -6.39086 0 
7.62322 -6.38274 0 7.62402 -6.37463 0 7.62483 -6.36651 0 
7.6257 -6.35838 0 7.62652 -6.35028 0 7.62739 -6.34218 0 
7.62826 -6.33408 0 7.62913 -6.32599 0 7.63004 -6.31791 0 
7.63096 -6.30983 0 7.6319 -6.30176 0 7.63283 -6.29368 0 
7.63379 -6.28562 0 7.63481 -6.27753 0 7.63582 -6.26948 0 
7.63682 -6.26143 0 7.63784 -6.25339 0 7.63889 -6.24535 0 
7.63994 -6.23731 0 7.641 -6.22929 0 7.64206 -6.22126 0 
7.64318 -6.21325 0 7.64428 -6.20523 0 7.64538 -6.19722 0 
7.64658 -6.1892 0 7.64774 -6.18121 0 7.64891 -6.17322 0 
7.65008 -6.16524 0 7.65127 -6.15726 0 7.65248 -6.14929 0 
7.65369 -6.14132 0 7.65492 -6.13336 0 7.65618 -6.12541 0 
7.65743 -6.11746 0 7.65878 -6.10951 0 7.66004 -6.10157 0 
7.66136 -6.09364 0 7.66267 -6.08572 0 7.66401 -6.07781 0 
7.66534 -6.0699 0 7.66669 -6.06199 0 7.66807 -6.0541 0 
7.66943 -6.04621 0 7.67082 -6.03833 0 7.67229 -6.03043 0 
7.67372 -6.02257 0 7.67516 -6.01471 0 7.67661 -6.00686 0 
7.67806 -5.999 0 7.67953 -5.99116 0 7.68102 -5.98333 0 
7.68251 -5.97551 0 7.68402 -5.96769 0 7.68555 -5.95988 0 
7.68708 -5.95207 0 7.68867 -5.94425 0 7.69024 -5.93647 0 
7.6918 -5.92868 0 7.69339 -5.92091 0 7.69499 -5.91314 0 
7.6966 -5.90538 0 7.69822 -5.89763 0 7.69983 -5.88988 0 
7.70148 -5.88214 0 7.70313 -5.87442 0 7.70486 -5.86668 0 
7.70654 -5.85897 0 7.70824 -5.85126 0 7.70993 -5.84356 0 
7.71164 -5.83587 0 7.71338 -5.82819 0 7.71511 -5.82051 0 
7.71685 -5.81285 0 7.71863 -5.80519 0 7.72039 -5.79754 0 
7.72218 -5.7899 0 7.72404 -5.78225 0 7.72583 -5.77462 0 
7.72766 -5.76701 0 7.72948 -5.7594 0 7.73131 -5.75179 0 
7.73318 -5.7442 0 7.73506 -5.73663 0 7.73694 -5.72905 0 
7.73879 -5.72148 0 7.74072 -5.71393 0 7.74267 -5.70636 0 
7.74458 -5.69881 0 7.7465 -5.69128 0 7.74845 -5.68376 0 
7.75042 -5.67625 0 7.75238 -5.66874 0 7.75432 -5.66123 0 
7.75633 -5.65375 0 7.75833 -5.64627 0 7.76032 -5.6388 0 
7.7624 -5.63132 0 7.7644 -5.62386 0 7.76645 -5.61642 0 
7.7685 -5.60898 0 7.77057 -5.60156 0 7.77262 -5.59414 0 
7.7747 -5.58673 0 7.7768 -5.57933 0 7.7789 -5.57194 0 
7.78101 -5.56456 0 7.78312 -5.55719 0 7.78529 -5.5498 0 
7.78745 -5.54245 0 7.78958 -5.5351 0 7.79175 -5.52777 0 
7.79393 -5.52045 0 7.79611 -5.51313 0 7.79831 -5.50583 0 
7.80049 -5.49852 0 7.80271 -5.49123 0 7.80494 -5.48396 0 
7.80721 -5.47667 0 7.80945 -5.46941 0 7.81172 -5.46216 0 
7.81398 -5.45492 0 7.81622 -5.44768 0 7.81853 -5.44047 0 
7.82083 -5.43325 0 7.82312 -5.42604 0 7.82543 -5.41884 0 
7.82776 -5.41166 0 7.83011 -5.40449 0 7.83246 -5.39733 0 
7.83478 -5.39016 0 7.83715 -5.38302 0 7.83952 -5.37588 0 
7.84192 -5.36876 0 7.84431 -5.36164 0 7.84669 -5.35453 0 
7.8491 -5.34743 0 7.85152 -5.34034 0 7.85397 -5.33327 0 
7.8564 -5.3262 0 7.85882 -5.31914 0 7.86131 -5.31209 0 
7.86378 -5.30506 0 7.86624 -5.29803 0 7.86873 -5.29101 0 
7.87123 -5.284 0 7.87373 -5.277 0 7.87624 -5.27001 0 
7.87875 -5.26303 0 7.88128 -5.25606 0 7.88383 -5.2491 0 
7.88637 -5.24215 0 7.88893 -5.23522 0 7.89152 -5.2283 0 
7.8941 -5.22138 0 7.89666 -5.21446 0 7.89924 -5.20756 0 
7.90186 -5.20068 0 7.90449 -5.19381 0 7.90711 -5.18694 0 
7.90972 -5.18007 0 7.91238 -5.17324 0 7.915 -5.16639 0 
7.91769 -5.15957 0 7.92035 -5.15276 0 7.92301 -5.14595 0 
7.92568 -5.13915 0 7.92838 -5.13237 0 7.93107 -5.12559 0 
7.93378 -5.11883 0 7.93652 -5.11208 0 7.93924 -5.10533 0 
7.94199 -5.0986 0 7.94473 -5.09188 0 7.94748 -5.08516 0 
7.95023 -5.07845 0 7.953 -5.07176 0 7.95579 -5.06508 0 
7.95858 -5.05841 0 7.96138 -5.05175 0 7.96417 -5.0451 0 
7.96699 -5.03846 0 7.96983 -5.03184 0 7.97265 -5.02522 0 
7.97547 -5.0186 0 7.97834 -5.01201 0 7.9812 -5.00543 0 
7.98405 -4.99885 0 7.98692 -4.99228 0 7.98982 -4.98573 0 
7.9927 -4.97918 0 7.99562 -4.97265 0 7.9985 -4.96612 0 
8.00143 -4.95961 0 8.00434 -4.9531 0 8.00727 -4.94661 0 
8.01022 -4.94013 0 8.01316 -4.93365 0 8.01612 -4.92719 0 
8.01908 -4.92074 0 8.02205 -4.9143 0 8.02505 -4.90788 0 
8.02805 -4.90146 0 8.03106 -4.89505 0 8.03405 -4.88865 0 
8.03708 -4.88227 0 8.04008 -4.87589 0 8.04312 -4.86952 0 
8.04618 -4.86317 0 8.04923 -4.85683 0 8.05226 -4.85049 0 
8.05535 -4.84417 0 8.0584 -4.83785 0 8.0615 -4.83155 0 
8.06459 -4.82526 0 8.06767 -4.81898 0 8.07078 -4.81271 0 
8.0739 -4.80645 0 8.07702 -4.8002 0 8.08016 -4.79397 0 
8.08332 -4.78774 0 8.08644 -4.78152 0 8.08961 -4.77532 0 
8.09277 -4.76912 0 8.09596 -4.76294 0 8.09914 -4.75676 0 
8.10233 -4.7506 0 8.10552 -4.74445 0 8.10872 -4.7383 0 
8.11193 -4.73217 0 8.11514 -4.72605 0 8.11839 -4.71994 0 
8.12163 -4.71384 0 8.12488 -4.70776 0 8.12813 -4.70168 0 
8.13139 -4.69561 0 8.13465 -4.68955 0 8.13793 -4.68351 0 
8.14123 -4.67748 0 8.14453 -4.67145 0 8.14784 -4.66544 0 
8.15115 -4.65944 0 8.15447 -4.65345 0 8.15779 -4.64746 0 
8.16113 -4.64149 0 8.16446 -4.63553 0 8.16781 -4.62957 0 
8.17119 -4.62364 0 8.17455 -4.61771 0 8.17794 -4.6118 0 
8.18132 -4.60589 0 8.18472 -4.59999 0 8.18811 -4.5941 0 
8.19152 -4.58823 0 8.19492 -4.58236 0 8.19835 -4.57651 0 
8.20179 -4.57067 0 8.20523 -4.56484 0 8.20869 -4.55902 0 
8.21214 -4.5532 0 8.21562 -4.54741 0 8.21907 -4.54161 0 
8.22256 -4.53584 0 8.22604 -4.53006 0 8.22953 -4.5243 0 
8.23306 -4.51856 0 8.23657 -4.51283 0 8.2401 -4.5071 0 
8.24362 -4.50139 0 8.24718 -4.49568 0 8.25071 -4.48999 0 
8.25427 -4.48431 0 8.25782 -4.47863 0 8.26139 -4.47297 0 
8.26499 -4.46732 0 8.26857 -4.46168 0 8.27215 -4.45604 0 
8.27575 -4.45042 0 8.27937 -4.44482 0 8.28298 -4.43921 0 
8.28662 -4.43363 0 8.29024 -4.42805 0 8.29389 -4.42248 0 
8.29756 -4.41693 0 8.30122 -4.41139 0 8.30487 -4.40584 0 
8.30855 -4.40032 0 8.31224 -4.39481 0 8.31592 -4.3893 0 
8.31964 -4.38381 0 8.32334 -4.37833 0 8.32707 -4.37286 0 
8.33077 -4.36739 0 8.33452 -4.36194 0 8.33824 -4.3565 0 
8.342 -4.35107 0 8.34577 -4.34565 0 8.34954 -4.34025 0 
8.35333 -4.33485 0 8.35711 -4.32946 0 8.36091 -4.32409 0 
8.3647 -4.31872 0 8.36851 -4.31336 0 8.37232 -4.30801 0 
8.37615 -4.30268 0 8.37997 -4.29735 0 8.38381 -4.29204 0 
8.38765 -4.28673 0 8.3915 -4.28143 0 8.39538 -4.27615 0 
8.39925 -4.27088 0 8.40314 -4.26562 0 8.40703 -4.26036 0 
8.41093 -4.25513 0 8.41484 -4.24989 0 8.41876 -4.24467 0 
8.42266 -4.23946 0 8.42661 -4.23426 0 8.43053 -4.22906 0 
8.43448 -4.22388 0 8.43846 -4.21872 0 8.44241 -4.21356 0 
8.44637 -4.2084 0 8.45035 -4.20326 0 8.45436 -4.19814 0 
8.45834 -4.19302 0 8.46236 -4.18792 0 8.46637 -4.18281 0 
8.4704 -4.17773 0 8.47443 -4.17265 0 8.47847 -4.16758 0 