# vtk DataFile Version 3.0
vtk output
ASCII
DATASET POLYDATA
POINTS 5000 float
10.2489 -36.0925 0 13.6785 -35.6476 0 15.1163 -35.4504 0 
16.2237 -35.2959 0 17.159 -35.164 0 17.9837 -35.0472 0 
18.7292 -34.9413 0 19.4144 -34.844 0 20.0515 -34.7537 0 
20.6491 -34.6693 0 21.2133 -34.5898 0 21.749 -34.5148 0 
22.2598 -34.4436 0 22.7485 -34.3758 0 23.2177 -34.3112 0 
23.6692 -34.2495 0 24.1047 -34.1902 0 24.5256 -34.1335 0 
24.9332 -34.079 0 25.3283 -34.0265 0 25.7121 -33.976 0 
26.0852 -33.9273 0 26.4484 -33.8803 0 26.8023 -33.8349 0 
27.1475 -33.791 0 27.4844 -33.7485 0 27.8135 -33.7072 0 
28.1353 -33.6674 0 28.4501 -33.6287 0 28.7584 -33.5912 0 
29.0603 -33.5548 0 29.3561 -33.5194 0 29.6463 -33.485 0 
29.931 -33.4516 0 30.2104 -33.4191 0 30.4848 -33.3875 0 
30.7543 -33.3566 0 31.0192 -33.3265 0 31.2797 -33.2973 0 
31.5358 -33.2687 0 31.7879 -33.2409 0 32.0359 -33.2138 0 
32.2801 -33.1872 0 32.5204 -33.1614 0 32.7573 -33.1361 0 
32.9907 -33.1113 0 33.2207 -33.0872 0 33.4474 -33.0634 0 
33.671 -33.0403 0 33.8914 -33.0176 0 34.109 -32.9954 0 
34.3236 -32.9737 0 34.5355 -32.9524 0 34.7446 -32.9315 0 
34.951 -32.911 0 35.1549 -32.891 0 35.3563 -32.8712 0 
35.5552 -32.8519 0 35.7517 -32.8328 0 35.9459 -32.8141 0 
36.1379 -32.7958 0 36.3277 -32.7777 0 36.5153 -32.7599 0 
36.7008 -32.7425 0 36.8843 -32.7253 0 37.0658 -32.7084 0 
37.2453 -32.6917 0 37.4229 -32.6753 0 37.5987 -32.659 0 
37.7726 -32.643 0 37.9448 -32.6273 0 38.1152 -32.6117 0 
38.2839 -32.5964 0 38.4509 -32.5812 0 38.6163 -32.5663 0 
38.7802 -32.5515 0 38.9425 -32.5369 0 39.1032 -32.5224 0 
39.2624 -32.5081 0 39.4202 -32.4939 0 39.5765 -32.4799 0 
39.7315 -32.4661 0 39.8851 -32.4523 0 40.0372 -32.4387 0 
40.1881 -32.4253 0 40.3377 -32.4119 0 40.4859 -32.3987 0 
40.6329 -32.3855 0 40.7788 -32.3725 0 40.9233 -32.3594 0 
41.0668 -32.3466 0 41.209 -32.3338 0 41.3501 -32.3211 0 
41.4901 -32.3085 0 41.6289 -32.296 0 41.7668 -32.2835 0 
41.9035 -32.2711 0 42.0391 -32.2588 0 42.1737 -32.2465 0 
42.3074 -32.2342 0 42.4401 -32.222 0 42.5717 -32.2099 0 
42.7024 -32.1978 0 42.8322 -32.1857 0 42.961 -32.1737 0 
43.089 -32.1618 0 43.216 -32.1498 0 43.3421 -32.1379 0 
43.4674 -32.1261 0 43.5918 -32.1142 0 43.7154 -32.1023 0 
43.8381 -32.0905 0 43.96 -32.0787 0 44.0811 -32.0669 0 
44.2015 -32.0551 0 44.321 -32.0434 0 44.4398 -32.0316 0 
44.5578 -32.0199 0 44.6751 -32.0081 0 44.7916 -31.9964 0 
44.9075 -31.9845 0 45.0225 -31.9728 0 45.137 -31.961 0 
45.2507 -31.9492 0 45.3637 -31.9375 0 45.4761 -31.9257 0 
45.5878 -31.9139 0 45.6988 -31.9021 0 45.8091 -31.8903 0 
45.9189 -31.8784 0 46.028 -31.8666 0 46.1366 -31.8546 0 
46.2445 -31.8427 0 46.3518 -31.8308 0 46.4585 -31.8188 0 
46.5647 -31.8068 0 46.6702 -31.7948 0 46.7752 -31.7828 0 
46.8796 -31.7707 0 46.9834 -31.7587 0 47.0868 -31.7465 0 
47.1895 -31.7343 0 47.2918 -31.7221 0 47.3935 -31.7099 0 
47.4947 -31.6976 0 47.5954 -31.6853 0 47.6956 -31.673 0 
47.7953 -31.6606 0 47.8945 -31.6482 0 47.9932 -31.6358 0 
48.0914 -31.6233 0 48.1892 -31.6106 0 48.2864 -31.598 0 
48.3833 -31.5854 0 48.4796 -31.5728 0 48.5755 -31.56 0 
48.6709 -31.5473 0 48.766 -31.5345 0 48.8605 -31.5216 0 
48.9547 -31.5087 0 49.0485 -31.4958 0 49.1418 -31.4827 0 
49.2347 -31.4696 0 49.3271 -31.4565 0 49.4192 -31.4433 0 
49.5108 -31.4301 0 49.6021 -31.4169 0 49.693 -31.4035 0 
49.7835 -31.3902 0 49.8736 -31.3767 0 49.9633 -31.3633 0 
50.0527 -31.3497 0 50.1417 -31.336 0 50.2303 -31.3224 0 
50.3186 -31.3087 0 50.4065 -31.2949 0 50.494 -31.2811 0 
50.5812 -31.2672 0 50.6681 -31.2533 0 50.7545 -31.2393 0 
50.8407 -31.2253 0 50.9265 -31.2111 0 51.012 -31.197 0 
51.0972 -31.1826 0 51.1821 -31.1683 0 51.2666 -31.154 0 
51.3507 -31.1396 0 51.4347 -31.1251 0 51.5183 -31.1106 0 
51.6015 -31.096 0 51.6845 -31.0813 0 51.7671 -31.0666 0 
51.8495 -31.0518 0 51.9316 -31.0369 0 52.0133 -31.022 0 
52.0948 -31.007 0 52.176 -30.992 0 52.2569 -30.9769 0 
52.3376 -30.9617 0 52.4179 -30.9465 0 52.498 -30.9312 0 
52.5778 -30.9158 0 52.6573 -30.9004 0 52.7366 -30.8849 0 
52.8156 -30.8693 0 52.8944 -30.8537 0 52.9728 -30.838 0 
53.051 -30.8223 0 53.129 -30.8065 0 53.2067 -30.7906 0 
53.2841 -30.7747 0 53.3614 -30.7587 0 53.4383 -30.7426 0 
53.515 -30.7265 0 53.5915 -30.7102 0 53.6678 -30.694 0 
53.7438 -30.6776 0 53.8195 -30.6612 0 53.895 -30.6448 0 
53.9703 -30.6283 0 54.0455 -30.6117 0 54.1203 -30.5951 0 
54.1949 -30.5783 0 54.2693 -30.5616 0 54.3435 -30.5446 0 
54.4174 -30.5277 0 54.4912 -30.5107 0 54.5648 -30.4937 0 
54.6381 -30.4766 0 54.7112 -30.4594 0 54.7841 -30.4422 0 
54.8568 -30.4249 0 54.9293 -30.4075 0 55.0016 -30.3901 0 
55.0736 -30.3726 0 55.1455 -30.3549 0 55.2172 -30.3373 0 
55.2887 -30.3196 0 55.36 -30.3019 0 55.431 -30.2841 0 
55.5019 -30.2662 0 55.5727 -30.2482 0 55.6432 -30.2302 0 
55.7135 -30.2121 0 55.7837 -30.194 0 55.8536 -30.1757 0 
55.9234 -30.1574 0 55.993 -30.1391 0 56.0624 -30.1207 0 
56.1317 -30.1022 0 56.2007 -30.0837 0 56.2696 -30.0651 0 
56.3383 -30.0464 0 56.4068 -30.0277 0 56.4752 -30.0089 0 
56.5434 -29.9901 0 56.6114 -29.9711 0 56.6793 -29.9521 0 
56.747 -29.9331 0 56.8145 -29.914 0 56.8818 -29.8948 0 
56.949 -29.8756 0 57.016 -29.8563 0 57.0829 -29.837 0 
57.1497 -29.8176 0 57.2162 -29.7981 0 57.2826 -29.7785 0 
57.3488 -29.7589 0 57.4149 -29.7392 0 57.4808 -29.7195 0 
57.5466 -29.6997 0 57.6122 -29.6799 0 57.6777 -29.66 0 
57.7431 -29.64 0 57.8083 -29.62 0 57.8732 -29.5999 0 
57.9381 -29.5798 0 58.0029 -29.5594 0 58.0675 -29.5392 0 
58.1319 -29.5188 0 58.1963 -29.4985 0 58.2604 -29.478 0 
58.3244 -29.4575 0 58.3883 -29.4369 0 58.452 -29.4163 0 
58.5157 -29.3956 0 58.5791 -29.3749 0 58.6424 -29.354 0 
58.7057 -29.3331 0 58.7687 -29.3122 0 58.8316 -29.2912 0 
58.8944 -29.2702 0 58.9571 -29.2491 0 59.0196 -29.228 0 
59.0821 -29.2067 0 59.1443 -29.1855 0 59.2064 -29.1641 0 
59.2684 -29.1427 0 59.3304 -29.1212 0 59.3921 -29.0997 0 
59.4537 -29.0782 0 59.5153 -29.0566 0 59.5767 -29.0349 0 
59.6379 -29.0132 0 59.699 -28.9914 0 59.76 -28.9696 0 
59.821 -28.9477 0 59.8817 -28.9258 0 59.9424 -28.9037 0 
60.003 -28.8816 0 60.0634 -28.8595 0 60.1236 -28.8374 0 
60.1839 -28.8151 0 60.2439 -28.7929 0 60.3039 -28.7706 0 
60.3637 -28.7482 0 60.4234 -28.7257 0 60.483 -28.7033 0 
60.5425 -28.6806 0 60.6019 -28.658 0 60.6612 -28.6354 0 
60.7204 -28.6127 0 60.7794 -28.59 0 60.8383 -28.5672 0 
60.8971 -28.5443 0 60.9558 -28.5214 0 61.0144 -28.4985 0 
61.0729 -28.4755 0 61.1314 -28.4523 0 61.1896 -28.4292 0 
61.2478 -28.406 0 61.3059 -28.3828 0 61.3639 -28.3596 0 
61.4217 -28.3363 0 61.4795 -28.3129 0 61.5371 -28.2895 0 
61.5947 -28.266 0 61.6521 -28.2425 0 61.7095 -28.219 0 
61.7668 -28.1953 0 61.8239 -28.1716 0 61.8809 -28.1479 0 
61.9378 -28.1242 0 61.9947 -28.1004 0 62.0514 -28.0765 0 
62.1081 -28.0526 0 62.1646 -28.0287 0 62.221 -28.0047 0 
62.2774 -27.9807 0 62.3336 -27.9565 0 62.3898 -27.9324 0 
62.4459 -27.9082 0 62.5018 -27.884 0 62.5577 -27.8597 0 
62.6134 -27.8354 0 62.6691 -27.811 0 62.7247 -27.7866 0 
62.7801 -27.7622 0 62.8355 -27.7377 0 62.8908 -27.7131 0 
62.9461 -27.6885 0 63.0012 -27.6638 0 63.0562 -27.6392 0 
63.1111 -27.6144 0 63.1659 -27.5897 0 63.2207 -27.5649 0 
63.2754 -27.54 0 63.3299 -27.5152 0 63.3844 -27.4902 0 
63.4388 -27.4652 0 63.4931 -27.4401 0 63.5473 -27.4151 0 
63.6014 -27.39 0 63.6554 -27.3648 0 63.7093 -27.3396 0 
63.7631 -27.3144 0 63.8169 -27.2891 0 63.8706 -27.2638 0 
63.9242 -27.2385 0 63.9777 -27.2131 0 64.0311 -27.1877 0 
64.0844 -27.1621 0 64.1377 -27.1366 0 64.1909 -27.111 0 
64.2439 -27.0854 0 64.2969 -27.0598 0 64.3498 -27.0341 0 
64.4026 -27.0084 0 64.4554 -26.9827 0 64.508 -26.9569 0 
64.5605 -26.9311 0 64.613 -26.9051 0 64.6655 -26.8792 0 
64.7178 -26.8533 0 64.77 -26.8273 0 64.8221 -26.8013 0 
64.8742 -26.7753 0 64.9262 -26.7492 0 64.9781 -26.7231 0 
65.0299 -26.6969 0 65.0817 -26.6707 0 65.1334 -26.6444 0 
65.185 -26.6181 0 65.2365 -26.5918 0 65.2879 -26.5655 0 
65.3392 -26.5391 0 65.3905 -26.5127 0 65.4417 -26.4862 0 
65.4928 -26.4598 0 65.5438 -26.4332 0 65.5947 -26.4067 0 
65.6456 -26.3801 0 65.6964 -26.3534 0 65.7471 -26.3267 0 
65.7978 -26.3001 0 65.8483 -26.2733 0 65.8988 -26.2466 0 
65.9492 -26.2198 0 65.9995 -26.193 0 66.0498 -26.1662 0 
66.1 -26.1393 0 66.15 -26.1124 0 66.2001 -26.0853 0 
66.25 -26.0583 0 66.2998 -26.0313 0 66.3496 -26.0043 0 
66.3994 -25.9772 0 66.449 -25.9501 0 66.4985 -25.923 0 
66.5481 -25.8959 0 66.5974 -25.8687 0 66.6468 -25.8414 0 
66.6961 -25.8142 0 66.7453 -25.7868 0 66.7944 -25.7595 0 
66.8434 -25.7321 0 66.8924 -25.7048 0 66.9412 -25.6774 0 
66.9901 -25.65 0 67.0388 -25.6225 0 67.0875 -25.595 0 
67.1361 -25.5675 0 67.1846 -25.54 0 67.233 -25.5123 0 
67.2814 -25.4847 0 67.3297 -25.4571 0 67.3779 -25.4294 0 
67.4262 -25.4017 0 67.4742 -25.374 0 67.5222 -25.3463 0 
67.5702 -25.3185 0 67.618 -25.2908 0 67.6659 -25.263 0 
67.7136 -25.235 0 67.7612 -25.2071 0 67.8088 -25.1793 0 
67.8563 -25.1513 0 67.9038 -25.1234 0 67.9512 -25.0954 0 
67.9984 -25.0674 0 68.0457 -25.0394 0 68.0928 -25.0114 0 
68.1399 -24.9833 0 68.187 -24.9552 0 68.2339 -24.927 0 
68.2808 -24.8989 0 68.3276 -24.8707 0 68.3744 -24.8425 0 
68.421 -24.8143 0 68.4676 -24.7861 0 68.5142 -24.7579 0 
68.5606 -24.7296 0 68.607 -24.7013 0 68.6533 -24.673 0 
68.6995 -24.6445 0 68.7458 -24.6161 0 68.7919 -24.5878 0 
68.8379 -24.5593 0 68.8839 -24.5309 0 68.9298 -24.5025 0 
68.9756 -24.474 0 69.0214 -24.4455 0 69.0671 -24.417 0 
69.1127 -24.3884 0 69.1583 -24.3599 0 69.2038 -24.3312 0 
69.2492 -24.3026 0 69.2946 -24.274 0 69.3398 -24.2454 0 
69.3851 -24.2167 0 69.4302 -24.188 0 69.4753 -24.1593 0 
69.5203 -24.1306 0 69.5652 -24.1019 0 69.6101 -24.0731 0 
69.655 -24.0442 0 69.6997 -24.0154 0 69.7445 -23.9866 0 
69.789 -23.9578 0 69.8336 -23.9289 0 69.878 -23.9001 0 
69.9224 -23.8712 0 69.9668 -23.8423 0 70.0111 -23.8134 0 
70.0553 -23.7845 0 70.0995 -23.7555 0 70.1435 -23.7264 0 
70.1876 -23.6974 0 70.2315 -23.6684 0 70.2754 -23.6394 0 
70.3192 -23.6104 0 70.363 -23.5813 0 70.4066 -23.5522 0 
70.4502 -23.5232 0 70.4938 -23.4941 0 70.5373 -23.4649 0 
70.5807 -23.4357 0 70.6241 -23.4065 0 70.6673 -23.3774 0 
[...]
POINT_DATA 5000
VECTORS velocity double
16.1296 -10.9476 0 16.1544 -10.2238 0 16.1811 -9.91341 0 
16.2058 -9.67417 0 16.2286 -9.47307 0 16.2495 -9.29723 0 
16.2685 -9.13999 0 16.2858 -8.99724 0 16.3014 -8.86637 0 
16.3154 -8.74549 0 16.3278 -8.63324 0 16.3387 -8.52852 0 
16.3482 -8.43049 0 16.3562 -8.33852 0 16.3629 -8.25199 0 
16.3684 -8.17043 0 16.3725 -8.09351 0 16.3755 -8.02079 0 
16.3773 -7.95199 0 16.378 -7.88687 0 16.3776 -7.82515 0 
16.3761 -7.76666 0 16.3736 -7.71118 0 16.3702 -7.65856 0 
16.3658 -7.60861 0 16.3605 -7.56121 0 16.3544 -7.51626 0 
16.3473 -7.47357 0 16.3395 -7.43306 0 16.3309 -7.39461 0 
16.3215 -7.35814 0 16.3113 -7.32357 0 16.3005 -7.29077 0 
16.2889 -7.25971 0 16.2767 -7.23029 0 16.2639 -7.20245 0 
16.2504 -7.17611 0 16.2363 -7.15123 0 16.2217 -7.12772 0 
16.2065 -7.10554 0 16.1907 -7.08462 0 16.1744 -7.06494 0 
16.1576 -7.04644 0 16.1404 -7.02907 0 16.1227 -7.01278 0 
16.1045 -6.99753 0 16.0859 -6.98329 0 16.0668 -6.97004 0 
16.0474 -6.95771 0 16.0276 -6.94627 0 16.0074 -6.93569 0 
15.9868 -6.92595 0 15.9659 -6.91701 0 15.9447 -6.90885 0 
15.9231 -6.90143 0 15.9012 -6.89472 0 15.8791 -6.88871 0 
15.8566 -6.88338 0 15.8339 -6.87869 0 15.8109 -6.87462 0 
15.7876 -6.87114 0 15.7642 -6.86824 0 15.7404 -6.86591 0 
15.7165 -6.86411 0 15.6923 -6.86283 0 15.6679 -6.86205 0 
15.6434 -6.86176 0 15.6186 -6.86193 0 15.5937 -6.86257 0 
15.5686 -6.86363 0 15.5433 -6.86511 0 15.5179 -6.867 0 
15.4924 -6.86928 0 15.4666 -6.87193 0 15.4408 -6.87495 0 
15.4148 -6.87832 0 15.3887 -6.88203 0 15.3625 -6.88607 0 
15.3362 -6.89042 0 15.3098 -6.89509 0 15.2833 -6.90004 0 
15.2567 -6.90527 0 15.23 -6.91078 0 15.2033 -6.91655 0 
15.1765 -6.92258 0 15.1495 -6.92885 0 15.1226 -6.93536 0 
15.0956 -6.94209 0 15.0685 -6.94904 0 15.0414 -6.95621 0 
15.0142 -6.96358 0 14.987 -6.97114 0 14.9598 -6.97889 0 
14.9325 -6.98682 0 14.9052 -6.99492 0 14.8778 -7.00319 0 
14.8505 -7.01162 0 14.8231 -7.02021 0 14.7958 -7.02894 0 
14.7684 -7.03783 0 14.741 -7.04684 0 14.7136 -7.05598 0 
14.6862 -7.06525 0 14.6588 -7.07464 0 14.6314 -7.08414 0 
14.604 -7.09375 0 14.5766 -7.10347 0 14.5493 -7.11329 0 
14.522 -7.1232 0 14.4946 -7.13321 0 14.4674 -7.1433 0 
14.4401 -7.15347 0 14.4129 -7.16373 0 14.3856 -7.17405 0 
14.3585 -7.18445 0 14.3313 -7.19492 0 14.3042 -7.20544 0 
14.2771 -7.21603 0 14.2501 -7.22668 0 14.2231 -7.23737 0 
14.1962 -7.24812 0 14.1693 -7.25891 0 14.1424 -7.26975 0 
14.1156 -7.28062 0 14.0889 -7.29153 0 14.0622 -7.30248 0 
14.0355 -7.31347 0 14.009 -7.32447 0 13.9824 -7.3355 0 
13.9559 -7.34656 0 13.9296 -7.35764 0 13.9032 -7.36874 0 
13.8769 -7.37986 0 13.8507 -7.39098 0 13.8246 -7.40213 0 
13.7985 -7.41328 0 13.7725 -7.42443 0 13.7465 -7.4356 0 
13.7206 -7.44676 0 13.6948 -7.45793 0 13.6691 -7.4691 0 
13.6435 -7.48026 0 13.6179 -7.49144 0 13.5924 -7.50259 0 
13.5669 -7.51374 0 13.5416 -7.52488 0 13.5163 -7.53601 0 
13.4911 -7.54713 0 13.466 -7.55823 0 13.4409 -7.56931 0 
13.416 -7.58038 0 13.3911 -7.59144 0 13.3664 -7.60246 0 
13.3416 -7.61348 0 13.317 -7.62447 0 13.2925 -7.63543 0 
13.2681 -7.64637 0 13.2437 -7.65728 0 13.2194 -7.66817 0 
13.1952 -7.67903 0 13.1711 -7.68986 0 13.1471 -7.70065 0 
13.1232 -7.71142 0 13.0994 -7.72214 0 13.0757 -7.73284 0 
13.052 -7.74351 0 13.0285 -7.75413 0 13.005 -7.76473 0 
12.9816 -7.77527 0 12.9583 -7.78579 0 12.9351 -7.79626 0 
12.912 -7.8067 0 12.8891 -7.81708 0 12.8662 -7.82743 0 
12.8434 -7.83774 0 12.8206 -7.848 0 12.798 -7.85822 0 
12.7755 -7.8684 0 12.7531 -7.87852 0 12.7307 -7.8886 0 
12.7085 -7.89864 0 12.6864 -7.90862 0 12.6643 -7.91856 0 
12.6424 -7.92844 0 12.6205 -7.93828 0 12.5988 -7.94807 0 
12.5772 -7.9578 0 12.5556 -7.96749 0 12.5341 -7.97713 0 
12.5128 -7.9867 0 12.4915 -7.99623 0 12.4703 -8.0057 0 
12.4493 -8.01512 0 12.4283 -8.02449 0 12.4075 -8.03379 0 
12.3867 -8.04305 0 12.366 -8.05225 0 12.3455 -8.06139 0 
12.325 -8.07048 0 12.3046 -8.07951 0 12.2843 -8.08848 0 
12.2641 -8.0974 0 12.2441 -8.10625 0 12.2241 -8.11505 0 
12.2043 -8.12378 0 12.1845 -8.13246 0 12.1648 -8.14107 0 
12.1452 -8.14964 0 12.1258 -8.15813 0 12.1064 -8.16657 0 
12.0871 -8.17494 0 12.0679 -8.18327 0 12.0489 -8.19152 0 
12.0299 -8.19972 0 12.0111 -8.20783 0 11.9923 -8.21591 0 
11.9736 -8.22392 0 11.955 -8.23185 0 11.9366 -8.23973 0 
11.9182 -8.24755 0 11.8999 -8.25531 0 11.8817 -8.263 0 
11.8636 -8.27063 0 11.8456 -8.2782 0 11.8278 -8.28569 0 
11.81 -8.29312 0 11.7923 -8.3005 0 11.7748 -8.30781 0 
11.7573 -8.31505 0 11.7399 -8.32223 0 11.7226 -8.32934 0 
11.7054 -8.33639 0 11.6883 -8.34338 0 11.6713 -8.3503 0 
11.6545 -8.35715 0 11.6377 -8.36393 0 11.621 -8.37065 0 
11.6044 -8.37731 0 11.5879 -8.3839 0 11.5715 -8.39042 0 
11.5553 -8.39687 0 11.539 -8.40327 0 11.5229 -8.4096 0 
11.5069 -8.41585 0 11.491 -8.42206 0 11.4753 -8.42817 0 
11.4596 -8.43423 0 11.4439 -8.44022 0 11.4284 -8.44616 0 
11.413 -8.45202 0 11.3977 -8.45781 0 11.3824 -8.46355 0 
11.3673 -8.4692 0 11.3523 -8.4748 0 11.3373 -8.48033 0 
11.3225 -8.4858 0 11.3078 -8.49119 0 11.2931 -8.49652 0 
11.2786 -8.50178 0 11.2641 -8.50698 0 11.2497 -8.5121 0 
11.2355 -8.51717 0 11.2213 -8.52216 0 11.2072 -8.5271 0 
11.1932 -8.53197 0 11.1793 -8.53676 0 11.1656 -8.54148 0 
11.1519 -8.54614 0 11.1383 -8.55075 0 11.1248 -8.55527 0 
11.1113 -8.55974 0 11.098 -8.56414 0 11.0848 -8.56847 0 
11.0716 -8.57275 0 11.0585 -8.57695 0 11.0456 -8.58107 0 
11.0327 -8.58515 0 11.02 -8.58914 0 11.0073 -8.59307 0 
10.9947 -8.59694 0 10.9822 -8.60075 0 10.9698 -8.60449 0 
10.9575 -8.60816 0 10.9453 -8.61177 0 10.9332 -8.61531 0 
10.9211 -8.61879 0 10.9092 -8.6222 0 10.8974 -8.62552 0 
10.8856 -8.62881 0 10.8739 -8.63202 0 10.8623 -8.63518 0 
10.8508 -8.63826 0 10.8394 -8.64128 0 10.828 -8.64424 0 
10.8168 -8.64713 0 10.8057 -8.64995 0 10.7946 -8.65271 0 
10.7837 -8.6554 0 10.7728 -8.65804 0 10.762 -8.6606 0 
10.7513 -8.66311 0 10.7406 -8.66555 0 10.7301 -8.66793 0 
10.7197 -8.67024 0 10.7093 -8.67249 0 10.699 -8.67467 0 
10.6888 -8.6768 0 10.6787 -8.67886 0 10.6687 -8.68084 0 
10.6588 -8.68277 0 10.649 -8.68464 0 10.6392 -8.68645 0 
10.6295 -8.6882 0 10.6199 -8.68988 0 10.6104 -8.6915 0 
10.601 -8.69306 0 10.5916 -8.69455 0 10.5824 -8.69599 0 
10.5732 -8.69734 0 10.5641 -8.69866 0 10.5551 -8.69991 0 
10.5462 -8.7011 0 10.5373 -8.70222 0 10.5286 -8.70328 0 
10.5199 -8.70429 0 10.5113 -8.70523 0 10.5028 -8.70612 0 
10.4943 -8.70694 0 10.486 -8.70769 0 10.4777 -8.70839 0 
10.4695 -8.70903 0 10.4614 -8.70961 0 10.4533 -8.71014 0 
10.4454 -8.7106 0 10.4375 -8.711 0 10.4297 -8.71135 0 
10.422 -8.71164 0 10.4143 -8.71186 0 10.4068 -8.71203 0 
10.3993 -8.71212 0 10.3919 -8.71217 0 10.3846 -8.71216 0 
10.3773 -8.7121 0 10.3701 -8.71198 0 10.363 -8.71179 0 
10.356 -8.71156 0 10.349 -8.71126 0 10.3422 -8.7109 0 
10.3354 -8.7105 0 10.3287 -8.71001 0 10.322 -8.70949 0 
10.3155 -8.70891 0 10.309 -8.70827 0 10.3025 -8.70758 0 
10.2962 -8.70683 0 10.2899 -8.70602 0 10.2837 -8.70516 0 
10.2776 -8.70425 0 10.2715 -8.70328 0 10.2655 -8.70225 0 
10.2597 -8.70115 0 10.2538 -8.70002 0 10.248 -8.69883 0 
10.2423 -8.69759 0 10.2367 -8.69629 0 10.2311 -8.69494 0 
10.2257 -8.69353 0 10.2203 -8.69207 0 10.2149 -8.69056 0 
10.2096 -8.689 0 10.2045 -8.68736 0 10.1993 -8.68569 0 
10.1943 -8.68397 0 10.1893 -8.68219 0 10.1844 -8.68036 0 
10.1795 -8.67848 0 10.1747 -8.67655 0 10.17 -8.67457 0 
10.1653 -8.67253 0 10.1607 -8.67045 0 10.1562 -8.66831 0 
10.1518 -8.66611 0 10.1474 -8.66387 0 10.1431 -8.66158 0 
10.1388 -8.65924 0 10.1347 -8.65685 0 10.1305 -8.65442 0 
10.1265 -8.65193 0 10.1225 -8.64939 0 10.1185 -8.64681 0 
10.1147 -8.64417 0 10.1109 -8.64147 0 10.1072 -8.63874 0 
10.1035 -8.63596 0 10.0999 -8.63313 0 10.0964 -8.63025 0 
10.0929 -8.62733 0 10.0894 -8.62436 0 10.0861 -8.62134 0 
10.0828 -8.61828 0 10.0795 -8.61517 0 10.0764 -8.61199 0 
10.0733 -8.60878 0 10.0702 -8.60553 0 10.0672 -8.60223 0 
10.0643 -8.59889 0 10.0614 -8.5955 0 10.0586 -8.59207 0 
10.0559 -8.58859 0 10.0532 -8.58507 0 10.0505 -8.5815 0 
10.048 -8.57788 0 10.0455 -8.57421 0 10.043 -8.57051 0 
10.0406 -8.56676 0 10.0383 -8.56297 0 10.036 -8.55914 0 
10.0337 -8.55527 0 10.0316 -8.55135 0 10.0294 -8.54739 0 
10.0274 -8.54339 0 10.0254 -8.53934 0 10.0235 -8.53523 0 
10.0216 -8.5311 0 10.0198 -8.52693 0 10.018 -8.52272 0 
10.0162 -8.51847 0 10.0146 -8.51417 0 10.0129 -8.50984 0 
10.0113 -8.50546 0 10.0099 -8.50104 0 10.0084 -8.49659 0 
10.007 -8.49209 0 10.0057 -8.48753 0 10.0043 -8.48296 0 
10.0031 -8.47834 0 10.0019 -8.47369 0 10.0007 -8.469 0 
9.99964 -8.46426 0 9.9986 -8.4595 0 9.9976 -8.45469 0 
9.99665 -8.44984 0 9.99575 -8.44496 0 9.99497 -8.44001 0 
9.99417 -8.43506 0 9.99342 -8.43006 0 9.99273 -8.42503 0 
9.99205 -8.41996 0 9.99146 -8.41486 0 9.99091 -8.40971 0 
9.99039 -8.40454 0 9.98995 -8.39932 0 9.98952 -8.39408 0 
9.98922 -8.38877 0 9.98891 -8.38345 0 9.98864 -8.37809 0 
9.98841 -8.37271 0 9.98823 -8.36728 0 9.98809 -8.36183 0 
9.98801 -8.35633 0 9.98796 -8.35081 0 9.98797 -8.34525 0 
9.98803 -8.33966 0 9.98811 -8.33403 0 9.9883 -8.32835 0 
9.98848 -8.32266 0 9.98871 -8.31694 0 9.98897 -8.31118 0 
9.9893 -8.3054 0 9.98964 -8.29958 0 9.99003 -8.29373 0 
9.99049 -8.28785 0 9.99095 -8.28193 0 9.99149 -8.27599 0 
9.99213 -8.26999 0 9.99271 -8.26398 0 9.99336 -8.25795 0 
9.99406 -8.25188 0 9.99479 -8.24578 0 9.99556 -8.23966 0 
9.99637 -8.2335 0 9.99722 -8.22732 0 9.99811 -8.2211 0 
9.99903 -8.21486 0 9.99999 -8.20859 0 10.0011 -8.20227 0 
10.0021 -8.19594 0 10.0032 -8.18958 0 10.0043 -8.1832 0 
10.0055 -8.17679 0 10.0067 -8.17035 0 10.0079 -8.16389 0 
10.0092 -8.15739 0 10.0105 -8.15087 0 10.0118 -8.14433 0 
10.0133 -8.13773 0 10.0147 -8.13113 0 10.0161 -8.12451 0 
10.0176 -8.11786 0 10.0192 -8.11118 0 10.0207 -8.10449 0 
10.0223 -8.09776 0 10.024 -8.09101 0 10.0256 -8.08423 0 
10.0273 -8.07744 0 10.029 -8.07061 0 10.0309 -8.06374 0 
10.0327 -8.05687 0 10.0345 -8.04997 0 10.0364 -8.04306 0 
10.0383 -8.03611 0 10.0402 -8.02915 0 10.0422 -8.02216 0 
10.0442 -8.01515 0 10.0462 -8.00812 0 10.0482 -8.00106 0 
10.0504 -7.99396 0 10.0525 -7.98686 0 10.0547 -7.97974 0 
10.0568 -7.9726 0 10.0591 -7.96544 0 10.0613 -7.95826 0 
10.0636 -7.95105 0 10.0659 -7.94383 0 10.0682 -7.93658 0 
10.0706 -7.92932 0 10.073 -7.92201 0 10.0754 -7.9147 0 
10.0779 -7.90738 0 10.0804 -7.90003 0 10.0829 -7.89267 0 
10.0854 -7.88528 0 10.088 -7.87789 0 10.0905 -7.87046 0 
10.0932 -7.86302 0 10.0958 -7.85557 0 10.0985 -7.84809 0 
10.1012 -7.84058 0 10.104 -7.83306 0 10.1067 -7.82554 0 
10.1095 -7.81799 0 10.1123 -7.81043 0 10.1151 -7.80285 0 
10.1179 -7.79525 0 10.1208 -7.78764 0 10.1237 -7.78001 0 
10.1266 -7.77236 0 10.1296 -7.76468 0 10.1326 -7.757 0 
10.1356 -7.74931 0 10.1387 -7.7416 0 10.1417 -7.73388 0 
10.1447 -7.72613 0 10.1478 -7.71838 0 10.151 -7.71061 0 
10.1541 -7.70283 0 10.1573 -7.69503 0 10.1605 -7.68719 0 
10.1637 -7.67937 0 10.1669 -7.67153 0 10.1702 -7.66367 0 
10.1735 -7.65581 0 10.1767 -7.64793 0 10.1801 -7.64004 0 
10.1834 -7.63213 0 10.1868 -7.62421 0 10.1901 -7.61628 0 
10.1935 -7.60833 0 10.197 -7.60035 0 10.2004 -7.59238 0 
10.2039 -7.5844 0 10.2074 -7.57641 0 10.2109 -7.56841 0 
10.2144 -7.56039 0 10.2179 -7.55237 0 10.2215 -7.54433 0 
10.225 -7.53628 0 10.2286 -7.52822 0 10.2323 -7.52012 0 
10.2359 -7.51204 0 10.2396 -7.50395 0 10.2432 -7.49585 0 
10.2469 -7.48774 0 10.2506 -7.47962 0 10.2543 -7.47149 0 
10.258 -7.46335 0 10.2618 -7.4552 0 10.2656 -7.44704 0 
10.2694 -7.43887 0 10.2732 -7.43067 0 10.277 -7.42249 0 
10.2809 -7.41429 0 10.2847 -7.40609 0 10.2886 -7.39788 0 
10.2925 -7.38967 0 10.2964 -7.38144 0 10.3002 -7.3732 0 
10.3042 -7.36497 0 10.3081 -7.35671 0 10.3121 -7.34843 0 
10.3161 -7.34017 0 10.3201 -7.3319 0 10.3241 -7.32363 0 
10.3281 -7.31534 0 10.3321 -7.30705 0 10.3362 -7.29876 0 
10.3402 -7.29046 0 10.3443 -7.28215 0 10.3484 -7.27383 0 
10.3525 -7.26551 0 10.3566 -7.25716 0 10.3607 -7.24882 0 
10.3649 -7.24049 0 10.369 -7.23215 0 10.3732 -7.2238 0 
10.3773 -7.21545 0 10.3815 -7.20709 0 10.3857 -7.19873 0 
10.3899 -7.19036 0 10.3941 -7.18199 0 10.3984 -7.17359 0 
10.4027 -7.16521 0 10.4069 -7.15683 0 10.4112 -7.14845 0 
10.4155 -7.14005 0 10.4197 -7.13166 0 10.424 -7.12326 0 
10.4283 -7.11486 0 10.4326 -7.10645 0 10.437 -7.09805 0 
10.4413 -7.08964 0 10.4457 -7.0812 0 10.4501 -7.07278 0 
10.4545 -7.06437 0 10.4588 -7.05595 0 10.4632 -7.04752 0 
10.4676 -7.0391 0 10.472 -7.03067 0 10.4764 -7.02224 0 
10.4809 -7.01381 0 10.4853 -7.00537 0 10.4898 -6.99692 0 
10.4942 -6.98848 0 10.4987 -6.98005 0 10.5031 -6.97161 0 
10.5076 -6.96317 0 10.5121 -6.95473 0 10.5166 -6.94629 0 
10.5211 -6.93785 0 10.5256 -6.92941 0 10.5301 -6.92096 0 
10.5347 -6.91249 0 10.5392 -6.90405 0 10.5437 -6.89561 0 
10.5483 -6.88717 0 10.5528 -6.87872 0 10.5574 -6.87028 0 
10.562 -6.86184 0 10.5665 -6.85339 0 10.5711 -6.84495 0 
10.5757 -6.83651 0 10.5803 -6.82807 0 10.5849 -6.8196 0 
10.5895 -6.81117 0 10.5941 -6.80273 0 10.5987 -6.79429 0 
10.6034 -6.78586 0 10.608 -6.77743 0 10.6126 -6.76899 0 
10.6173 -6.76057 0 10.6219 -6.75213 0 10.6265 -6.74371 0 
10.6312 -6.73526 0 10.6359 -6.72683 0 10.6406 -6.71841 0 
10.6452 -6.70999 0 10.6499 -6.70158 0 10.6546 -6.69317 0 
10.6593 -6.68475 0 10.6639 -6.67634 0 10.6686 -6.66794 0 
10.6733 -6.65953 0 10.678 -6.65114 0 10.6828 -6.64272 0 
10.6875 -6.63432 0 10.6922 -6.62593 0 10.6969 -6.61754 0 
10.7017 -6.60916 0 10.7064 -6.60077 0 10.7111 -6.5924 0 
10.7158 -6.58403 0 10.7206 -6.57565 0 10.7253 -6.56729 0 
10.7301 -6.5589 0 10.7348 -6.55055 0 10.7396 -6.54218 0 
10.7443 -6.53384 0 10.7491 -6.5255 0 10.7538 -6.51715 0 
10.7586 -6.50881 0 10.7634 -6.50048 0 10.7681 -6.49215 0 
10.7729 -6.48383 0 10.7777 -6.47549 0 10.7825 -6.46718 0 
10.7873 -6.45886 0 10.7921 -6.45056 0 10.7968 -6.44227 0 
10.8016 -6.43397 0 10.8064 -6.42568 0 10.8112 -6.4174 0 
10.816 -6.40912 0 10.8208 -6.40085 0 10.8256 -6.39258 0 
10.8304 -6.3843 0 10.8352 -6.37604 0 10.84 -6.36779 0 
10.8448 -6.35955 0 10.8496 -6.35131 0 10.8544 -6.34308 0 
10.8592 -6.33485 0 10.864 -6.32663 0 10.8688 -6.31842 0 
10.8736 -6.31021 0 10.8784 -6.30199 0 10.8833 -6.2938 0 
10.8881 -6.28561 0 10.8929 -6.27742 0 10.8977 -6.26925 0 
10.9025 -6.26108 0 10.9073 -6.25292 0 10.9121 -6.24476 0 
10.917 -6.23662 0 10.9218 -6.22848 0 10.9266 -6.22034 0 
10.9314 -6.21219 0 10.9363 -6.20408 0 10.9411 -6.19597 0 
10.9459 -6.18786 0 10.9507 -6.17976 0 10.9555 -6.17167 0 
10.9603 -6.16359 0 10.9651 -6.15551 0 10.97 -6.14745 0 
10.9748 -6.13938 0 10.9797 -6.13132 0 10.9845 -6.12326 0 
10.9893 -6.11523 0 10.9941 -6.1072 0 10.9989 -6.09918 0 
11.0038 -6.09117 0 11.0086 -6.08316 0 11.0134 -6.07517 0 
11.0182 -6.06717 0 11.023 -6.05919 0 11.0279 -6.0512 0 
11.0327 -6.04324 0 11.0375 -6.03528 0 11.0423 -6.02734 0 
11.0471 -6.0194 0 11.052 -6.01146 0 11.0568 -6.00355 0 
11.0616 -5.99563 0 11.0664 -5.98772 0 11.0712 -5.97983 0 
11.076 -5.97194 0 11.0809 -5.96404 0 11.0857 -5.95617 0 
11.0905 -5.94831 0 11.0953 -5.94046 0 11.1001 -5.93262 0 
11.1049 -5.92479 0 11.1097 -5.91696 0 11.1145 -5.90914 0 
11.1193 -5.90134 0 11.1241 -5.89354 0 11.1289 -5.88573 0 
11.1337 -5.87796 0 11.1385 -5.87019 0 11.1433 -5.86243 0 
11.1481 -5.85468 0 11.1529 -5.84694 0 11.1577 -5.8392 0 
11.1625 -5.83148 0 11.1673 -5.82377 0 11.1721 -5.81607 0 
11.1768 -5.80837 0 11.1817 -5.80067 0 11.1865 -5.793 0 
11.1912 -5.78534 0 11.196 -5.77768 0 11.2008 -5.77004 0 
11.2056 -5.7624 0 11.2104 -5.75479 0 11.2151 -5.74717 0 
11.2199 -5.73956 0 11.2247 -5.73198 0 11.2295 -5.72437 0 
11.2342 -5.71679 0 11.239 -5.70923 0 11.2438 -5.70168 0 
11.2485 -5.69414 0 11.2533 -5.6866 0 11.258 -5.67908 0 
11.2628 -5.67157 0 11.2675 -5.66407 0 11.2723 -5.65657 0 
11.2771 -5.64908 0 11.2818 -5.6416 0 11.2866 -5.63414 0 
11.2913 -5.62669 0 11.2961 -5.61926 0 11.3008 -5.61182 0 
11.3055 -5.6044 0 11.3103 -5.597 0 11.315 -5.5896 0 
11.3197 -5.58222 0 11.3245 -5.57484 0 11.3292 -5.56745 0 
11.334 -5.5601 0 11.3387 -5.55276 0 11.3434 -5.54542 0 
11.3481 -5.53811 0 11.3529 -5.5308 0 11.3576 -5.5235 0 
11.3623 -5.5162 0 11.367 -5.50893 0 11.3717 -5.50166 0 
11.3765 -5.49438 0 11.3812 -5.48714 0 11.3859 -5.47991 0 
11.3906 -5.47269 0 11.3953 -5.46547 0 11.4 -5.45827 0 
11.4047 -5.45108 0 11.4094 -5.4439 0 11.414 -5.43673 0 
11.4187 -5.42957 0 11.4235 -5.42243 0 11.4281 -5.4153 0 
11.4328 -5.40816 0 11.4375 -5.40105 0 11.4422 -5.39395 0 
11.4469 -5.38686 0 11.4516 -5.37978 0 11.4562 -5.37271 0 
11.4609 -5.36565 0 11.4655 -5.35861 0 11.4702 -5.35158 0 
11.4749 -5.34456 0 11.4795 -5.33754 0 11.4842 -5.33055 0 
11.4889 -5.32356 0 11.4935 -5.31658 0 11.4982 -5.30962 0 
11.5029 -5.30267 0 11.5075 -5.29572 0 11.5122 -5.28879 0 
11.5168 -5.28187 0 11.5214 -5.27496 0 11.5261 -5.26807 0 
11.5307 -5.26118 0 11.5354 -5.25431 0 11.54 -5.24745 0 
11.5447 -5.2406 0 11.5493 -5.23376 0 11.5539 -5.22693 0 
11.5585 -5.22012 0 11.5632 -5.21332 0 11.5678 -5.20653 0 
11.5724 -5.19974 0 11.577 -5.19298 0 11.5816 -5.18622 0 
11.5863 -5.17948 0 11.5909 -5.17275 0 11.5955 -5.16602 0 
11.6001 -5.15931 0 11.6047 -5.15261 0 11.6093 -5.14592 0 
11.6139 -5.13925 0 11.6185 -5.13259 0 11.6231 -5.12594 0 
11.6277 -5.1193 0 11.6323 -5.11268 0 11.6369 -5.10606 0 
11.6415 -5.09945 0 11.6461 -5.09286 0 11.6507 -5.08628 0 
11.6553 -5.07972 0 11.6598 -5.07316 0 11.6644 -5.06661 0 
11.669 -5.06008 0 11.6736 -5.05356 0 11.6782 -5.04706 0 
11.6827 -5.04055 0 11.6873 -5.03407 0 11.6919 -5.0276 0 
11.6964 -5.02114 0 11.701 -5.01469 0 11.7056 -5.00826 0 
11.7101 -5.00183 0 11.7147 -4.99542 0 11.7193 -4.98901 0 
11.7238 -4.98262 0 11.7284 -4.97624 0 11.7329 -4.96987 0 
11.7375 -4.96352 0 11.742 -4.95718 0 11.7466 -4.95085 0 
11.7511 -4.94453 0 11.7557 -4.93822 0 11.7602 -4.93193 0 
11.7648 -4.92565 0 11.7693 -4.91938 0 11.7739 -4.91312 0 
11.7784 -4.90687 0 11.7829 -4.90064 0 11.7875 -4.89441 0 
11.792 -4.88821 0 11.7965 -4.88201 0 11.801 -4.87581 0 
11.8056 -4.86965 0 11.8101 -4.86348 0 11.8146 -4.85733 0 
11.8192 -4.85119 0 11.8237 -4.84506 0 11.8282 -4.83894 0 
11.8327 -4.83284 0 11.8372 -4.82675 0 11.8418 -4.82067 0 
11.8463 -4.81461 0 11.8508 -4.80855 0 11.8553 -4.8025 0 
11.8598 -4.79647 0 11.8644 -4.79046 0 11.8688 -4.78444 0 
11.8734 -4.77845 0 11.8779 -4.77247 0 11.8824 -4.76649 0 
11.8869 -4.76053 0 11.8914 -4.75458 0 11.8959 -4.74865 0 
11.9004 -4.74272 0 11.9049 -4.73681 0 11.9094 -4.73091 0 
11.9139 -4.72502 0 11.9184 -4.71914 0 11.9229 -4.71328 0 
11.9274 -4.70743 0 11.9319 -4.70159 0 11.9364 -4.69576 0 
11.9409 -4.68994 0 11.9454 -4.68413 0 11.9498 -4.67834 0 
11.9543 -4.67256 0 11.9588 -4.66678 0 11.9633 -4.66102 0 
11.9678 -4.65528 0 11.9723 -4.64955 0 11.9768 -4.64383 0 
11.9813 -4.63811 0 11.9858 -4.63242 0 11.9902 -4.62673 0 
11.9947 -4.62105 0 11.9992 -4.61538 0 12.0037 -4.60973 0 
12.0082 -4.60409 0 12.0126 -4.59847 0 12.0171 -4.59285 0 
12.0216 -4.58725 0 12.0261 -4.58165 0 12.0306 -4.57607 0 
12.035 -4.5705 0 12.0395 -4.56494 0 12.044 -4.55939 0 
12.0485 -4.55386 0 12.0529 -4.54834 0 12.0574 -4.54283 0 
12.0619 -4.53733 0 12.0664 -4.53185 0 12.0709 -4.52637 0 
12.0753 -4.5209 0 12.0798 -4.51545 0 12.0843 -4.51001 0 
12.0888 -4.50458 0 12.0932 -4.49916 0 12.0977 -4.49375 0 
12.1022 -4.48836 0 12.1066 -4.48298 0 12.1111 -4.4776 0 
12.1156 -4.47225 0 12.12 -4.46689 0 12.1245 -4.46156 0 
12.129 -4.45624 0 12.1335 -4.45093 0 12.138 -4.44562 0 
12.1424 -4.44033 0 12.1469 -4.43506 0 12.1514 -4.42978 0 
12.1559 -4.42453 0 12.1603 -4.41929 0 12.1648 -4.41406 0 
12.1693 -4.40883 0 12.1738 -4.40362 0 12.1782 -4.39842 0 
12.1827 -4.39324 0 12.1872 -4.38806 0 12.1917 -4.3829 0 
12.1962 -4.37775 0 12.2006 -4.37261 0 12.2051 -4.36748 0 
12.2096 -4.36236 0 12.2141 -4.35726 0 12.2186 -4.35216 0 
12.223 -4.34708 0 12.2275 -4.342 0 12.232 -4.33694 0 
12.2365 -4.33189 0 12.2409 -4.32685 0 12.2454 -4.32182 0 
12.2499 -4.31681 0 12.2544 -4.3118 0 12.2589 -4.30681 0 
12.2634 -4.30183 0 12.2679 -4.29686 0 12.2724 -4.2919 0 
12.2768 -4.28695 0 12.2813 -4.28201 0 12.2858 -4.27708 0 
12.2903 -4.27217 0 12.2948 -4.26727 0 12.2993 -4.26238 0 
12.3038 -4.25749 0 12.3083 -4.25262 0 12.3128 -4.24776 0 
12.3173 -4.24291 0 12.3218 -4.23808 0 12.3263 -4.23325 0 
12.3308 -4.22844 0 12.3353 -4.22363 0 12.3398 -4.21884 0 