# vtk DataFile Version 3.0
vtk output
ASCII
DATASET POLYDATA
POINTS 5000 float
12.8898 -37.9326 0 16.3125 -37.3706 0 17.7493 -37.1229 0 
18.8564 -36.9292 0 19.7917 -36.7643 0 20.6164 -36.6185 0 
21.362 -36.4866 0 22.0471 -36.3657 0 22.6841 -36.2537 0 
23.2814 -36.1491 0 23.8453 -36.051 0 24.3805 -35.9584 0 
24.8906 -35.8708 0 25.3786 -35.7876 0 25.8469 -35.7084 0 
26.2974 -35.6329 0 26.7317 -35.5607 0 27.1514 -35.4916 0 
27.5576 -35.4254 0 27.9513 -35.3618 0 28.3334 -35.3008 0 
28.7048 -35.2421 0 29.0662 -35.1855 0 29.4181 -35.1311 0 
29.7613 -35.0785 0 30.0961 -35.0278 0 30.423 -34.9788 0 
30.7424 -34.9315 0 31.0548 -34.8857 0 31.3606 -34.8415 0 
31.6599 -34.7986 0 31.953 -34.7572 0 32.2405 -34.717 0 
32.5223 -34.678 0 32.7988 -34.6402 0 33.0702 -34.6036 0 
33.3367 -34.568 0 33.5985 -34.5334 0 33.8558 -34.4998 0 
34.1087 -34.4672 0 34.3574 -34.4355 0 34.6021 -34.4047 0 
34.8428 -34.3747 0 35.0797 -34.3455 0 35.3131 -34.3171 0 
35.5429 -34.2894 0 35.7693 -34.2624 0 35.9923 -34.2361 0 
36.2122 -34.2105 0 36.4289 -34.1855 0 36.6427 -34.1611 0 
36.8534 -34.1374 0 37.0614 -34.1142 0 37.2666 -34.0915 0 
37.4691 -34.0694 0 37.669 -34.0477 0 37.8663 -34.0266 0 
38.0612 -34.0059 0 38.2537 -33.9856 0 38.4438 -33.9659 0 
38.6317 -33.9465 0 38.8173 -33.9276 0 39.0008 -33.909 0 
39.182 -33.8908 0 39.3613 -33.873 0 39.5386 -33.8555 0 
39.7139 -33.8383 0 39.8872 -33.8215 0 40.0587 -33.8049 0 
40.2283 -33.7887 0 40.3962 -33.7728 0 40.5622 -33.7571 0 
40.7266 -33.7417 0 40.8893 -33.7266 0 41.0503 -33.7117 0 
41.2098 -33.6971 0 41.3677 -33.6826 0 41.524 -33.6684 0 
41.6789 -33.6544 0 41.8322 -33.6406 0 41.9842 -33.627 0 
42.1347 -33.6136 0 42.2839 -33.6003 0 42.4316 -33.5873 0 
42.578 -33.5744 0 42.7232 -33.5617 0 42.867 -33.5491 0 
43.0095 -33.5366 0 43.1509 -33.5243 0 43.291 -33.5121 0 
43.4301 -33.5 0 43.5678 -33.4881 0 43.7045 -33.4763 0 
43.84 -33.4646 0 43.9744 -33.453 0 44.1078 -33.4415 0 
44.2401 -33.4301 0 44.3713 -33.4188 0 44.5015 -33.4075 0 
44.6308 -33.3963 0 44.759 -33.3852 0 44.8863 -33.3742 0 
45.0126 -33.3633 0 45.1379 -33.3524 0 45.2623 -33.3416 0 
45.3859 -33.3308 0 45.5086 -33.3201 0 45.6303 -33.3094 0 
45.7512 -33.2988 0 45.8713 -33.2882 0 45.9905 -33.2776 0 
46.1089 -33.2671 0 46.2264 -33.2566 0 46.3432 -33.2462 0 
46.4593 -33.2357 0 46.5745 -33.2253 0 46.689 -33.215 0 
46.8028 -33.2046 0 46.9157 -33.1942 0 47.028 -33.1839 0 
47.1396 -33.1735 0 47.2504 -33.1631 0 47.3606 -33.1528 0 
47.4701 -33.1425 0 47.5789 -33.1321 0 47.6871 -33.1218 0 
47.7946 -33.1115 0 47.9015 -33.1011 0 48.0077 -33.0908 0 
48.1133 -33.0804 0 48.2183 -33.07 0 48.3227 -33.0596 0 
48.4265 -33.0492 0 48.5297 -33.0387 0 48.6324 -33.0283 0 
48.7345 -33.0178 0 48.8359 -33.0073 0 48.9369 -32.9968 0 
49.0372 -32.9862 0 49.1371 -32.9757 0 49.2364 -32.9651 0 
49.3352 -32.9543 0 49.4335 -32.9437 0 49.5313 -32.9329 0 
49.6285 -32.9222 0 49.7253 -32.9114 0 49.8216 -32.9006 0 
49.9174 -32.8898 0 50.0127 -32.8789 0 50.1075 -32.8679 0 
50.2019 -32.8569 0 50.2958 -32.8458 0 50.3892 -32.8347 0 
50.4823 -32.8236 0 50.5748 -32.8125 0 50.6669 -32.8013 0 
50.7586 -32.79 0 50.8499 -32.7787 0 50.9407 -32.7673 0 
51.0312 -32.7559 0 51.1213 -32.7445 0 51.2109 -32.7329 0 
51.3001 -32.7213 0 51.3889 -32.7096 0 51.4774 -32.698 0 
51.5654 -32.6862 0 51.6531 -32.6744 0 51.7404 -32.6626 0 
51.8273 -32.6506 0 51.9139 -32.6387 0 52 -32.6266 0 
52.0859 -32.6146 0 52.1714 -32.6023 0 52.2565 -32.5901 0 
52.3413 -32.5778 0 52.4258 -32.5655 0 52.5099 -32.5531 0 
52.5937 -32.5406 0 52.6771 -32.5281 0 52.7602 -32.5155 0 
52.843 -32.5028 0 52.9255 -32.4901 0 53.0076 -32.4773 0 
53.0895 -32.4643 0 53.171 -32.4514 0 53.2523 -32.4384 0 
53.3332 -32.4253 0 53.4139 -32.4122 0 53.4942 -32.399 0 
53.5742 -32.3858 0 53.654 -32.3724 0 53.7334 -32.359 0 
53.8126 -32.3455 0 53.8916 -32.3319 0 53.9702 -32.3183 0 
54.0486 -32.3046 0 54.1267 -32.2908 0 54.2045 -32.277 0 
54.2821 -32.2631 0 54.3594 -32.2492 0 54.4364 -32.2351 0 
54.5132 -32.221 0 54.5897 -32.2068 0 54.666 -32.1926 0 
54.742 -32.1781 0 54.8178 -32.1637 0 54.8933 -32.1492 0 
54.9687 -32.1347 0 55.0437 -32.1201 0 55.1185 -32.1054 0 
55.1931 -32.0906 0 55.2675 -32.0758 0 55.3416 -32.0609 0 
55.4155 -32.0459 0 55.4892 -32.0307 0 55.5627 -32.0156 0 
55.6359 -32.0004 0 55.7089 -31.9851 0 55.7817 -31.9697 0 
55.8543 -31.9543 0 55.9267 -31.9388 0 55.9988 -31.9232 0 
56.0708 -31.9076 0 56.1425 -31.8918 0 56.2141 -31.8759 0 
56.2854 -31.86 0 56.3566 -31.8441 0 56.4275 -31.8281 0 
56.4982 -31.812 0 56.5688 -31.7958 0 56.6392 -31.7795 0 
56.7093 -31.7632 0 56.7793 -31.7468 0 56.8491 -31.7303 0 
56.9187 -31.7138 0 56.9882 -31.6971 0 57.0574 -31.6804 0 
57.1265 -31.6636 0 57.1954 -31.6467 0 57.264 -31.6298 0 
57.3325 -31.6128 0 57.4009 -31.5958 0 57.4691 -31.5786 0 
57.537 -31.5614 0 57.6049 -31.5441 0 57.6726 -31.5266 0 
57.7401 -31.5092 0 57.8074 -31.4917 0 57.8746 -31.4741 0 
57.9416 -31.4564 0 58.0084 -31.4387 0 58.0751 -31.4209 0 
58.1416 -31.403 0 58.208 -31.3851 0 58.2742 -31.367 0 
58.3403 -31.3489 0 58.4062 -31.3306 0 58.4719 -31.3124 0 
58.5375 -31.2941 0 58.603 -31.2757 0 58.6683 -31.2572 0 
58.7334 -31.2387 0 58.7984 -31.2201 0 58.8633 -31.2014 0 
58.928 -31.1826 0 58.9926 -31.1638 0 59.057 -31.1448 0 
59.1213 -31.1258 0 59.1855 -31.1068 0 59.2494 -31.0877 0 
59.3133 -31.0685 0 59.377 -31.0492 0 59.4406 -31.0299 0 
59.5042 -31.0105 0 59.5675 -30.9911 0 59.6306 -30.9715 0 
59.6937 -30.9519 0 59.7567 -30.9321 0 59.8195 -30.9124 0 
59.8822 -30.8926 0 59.9447 -30.8727 0 60.0071 -30.8527 0 
60.0694 -30.8327 0 60.1316 -30.8126 0 60.1936 -30.7924 0 
60.2556 -30.7722 0 60.3173 -30.7519 0 60.379 -30.7314 0 
60.4406 -30.711 0 60.502 -30.6905 0 60.5634 -30.6699 0 
60.6245 -30.6492 0 60.6856 -30.6285 0 60.7466 -30.6078 0 
60.8075 -30.5869 0 60.8681 -30.566 0 60.9288 -30.545 0 
60.9893 -30.5239 0 61.0498 -30.5027 0 61.11 -30.4816 0 
61.1702 -30.4603 0 61.2302 -30.439 0 61.2902 -30.4176 0 
61.35 -30.3962 0 61.4097 -30.3747 0 61.4693 -30.3531 0 
61.5289 -30.3315 0 61.5883 -30.3098 0 61.6476 -30.2879 0 
61.7068 -30.2661 0 61.7659 -30.2442 0 61.8249 -30.2222 0 
61.8838 -30.2002 0 61.9426 -30.1781 0 62.0012 -30.156 0 
62.0598 -30.1337 0 62.1182 -30.1115 0 62.1766 -30.0891 0 
62.2349 -30.0666 0 62.2931 -30.0442 0 62.3512 -30.0216 0 
62.4092 -29.999 0 62.4671 -29.9764 0 62.5248 -29.9537 0 
62.5825 -29.9309 0 62.6401 -29.9081 0 62.6976 -29.8852 0 
62.755 -29.8623 0 62.8123 -29.8391 0 62.8695 -29.816 0 
62.9266 -29.7929 0 62.9837 -29.7697 0 63.0406 -29.7465 0 
63.0974 -29.7232 0 63.1542 -29.6998 0 63.2108 -29.6764 0 
63.2674 -29.6529 0 63.3239 -29.6294 0 63.3803 -29.6058 0 
63.4366 -29.582 0 63.4928 -29.5583 0 63.5489 -29.5345 0 
63.6049 -29.5107 0 63.6609 -29.4868 0 63.7167 -29.4628 0 
63.7725 -29.4388 0 63.8282 -29.4148 0 63.8837 -29.3906 0 
63.9393 -29.3665 0 63.9947 -29.3421 0 64.05 -29.3179 0 
64.1053 -29.2935 0 64.1604 -29.2691 0 64.2156 -29.2447 0 
64.2705 -29.2202 0 64.3254 -29.1957 0 64.3803 -29.171 0 
64.435 -29.1464 0 64.4897 -29.1217 0 64.5443 -29.0969 0 
64.5989 -29.072 0 64.6533 -29.0471 0 64.7076 -29.0222 0 
64.7619 -28.9972 0 64.816 -28.9722 0 64.8702 -28.9471 0 
64.9242 -28.922 0 64.9781 -28.8968 0 65.032 -28.8715 0 
65.0858 -28.8463 0 65.1396 -28.8208 0 65.1932 -28.7954 0 
65.2467 -28.77 0 65.3002 -28.7445 0 65.3536 -28.719 0 
65.4069 -28.6934 0 65.4602 -28.6678 0 65.5133 -28.6421 0 
65.5664 -28.6164 0 65.6195 -28.5906 0 65.6724 -28.5648 0 
65.7253 -28.5388 0 65.7781 -28.5128 0 65.8308 -28.4869 0 
65.8834 -28.4608 0 65.936 -28.4348 0 65.9885 -28.4087 0 
66.0409 -28.3825 0 66.0932 -28.3563 0 66.1455 -28.3301 0 
66.1977 -28.3038 0 66.2499 -28.2773 0 66.3019 -28.2509 0 
66.3539 -28.2245 0 66.4058 -28.198 0 66.4576 -28.1715 0 
66.5094 -28.1449 0 66.5611 -28.1183 0 66.6127 -28.0917 0 
66.6642 -28.065 0 66.7158 -28.0382 0 66.7672 -28.0113 0 
66.8185 -27.9845 0 66.8698 -27.9576 0 66.921 -27.9307 0 
66.9721 -27.9038 0 67.0232 -27.8768 0 67.0741 -27.8497 0 
67.125 -27.8227 0 67.1759 -27.7955 0 67.2267 -27.7684 0 
67.2773 -27.7412 0 67.328 -27.7138 0 67.3786 -27.6865 0 
67.4291 -27.6592 0 67.4795 -27.6318 0 67.5299 -27.6044 0 
67.5802 -27.577 0 67.6304 -27.5495 0 67.6806 -27.522 0 
67.7307 -27.4944 0 67.7807 -27.4668 0 67.8307 -27.4391 0 
67.8806 -27.4114 0 67.9304 -27.3837 0 67.9801 -27.3559 0 
68.0298 -27.3281 0 68.0794 -27.3003 0 68.1289 -27.2724 0 
68.1785 -27.2445 0 68.2278 -27.2166 0 68.2772 -27.1886 0 
68.3265 -27.1606 0 68.3758 -27.1324 0 68.4249 -27.1044 0 
68.474 -27.0762 0 68.523 -27.0481 0 68.572 -27.0199 0 
68.6209 -26.9917 0 68.6697 -26.9634 0 68.7184 -26.9351 0 
68.7671 -26.9068 0 68.8157 -26.8785 0 68.8643 -26.8499 0 
68.9128 -26.8215 0 68.9612 -26.7931 0 69.0096 -26.7646 0 
69.058 -26.736 0 69.1061 -26.7075 0 69.1543 -26.6789 0 
69.2024 -26.6503 0 69.2505 -26.6216 0 69.2985 -26.5929 0 
69.3464 -26.5641 0 69.3943 -26.5353 0 69.442 -26.5066 0 
69.4898 -26.4777 0 69.5374 -26.4489 0 69.585 -26.42 0 
69.6325 -26.3911 0 69.68 -26.3622 0 69.7274 -26.3332 0 
69.7747 -26.3043 0 69.8221 -26.2752 0 69.8693 -26.2461 0 
69.9165 -26.217 0 69.9635 -26.1879 0 70.0106 -26.1587 0 
70.0575 -26.1296 0 70.1044 -26.1004 0 70.1513 -26.0712 0 
70.198 -26.0419 0 70.2447 -26.0126 0 70.2914 -25.9833 0 
70.3379 -25.9539 0 70.3845 -25.9245 0 70.431 -25.8952 0 
70.4773 -25.8657 0 70.5237 -25.8363 0 70.5699 -25.8068 0 
70.6161 -25.7774 0 70.6623 -25.7478 0 70.7084 -25.7183 0 
70.7544 -25.6887 0 70.8004 -25.6592 0 70.8462 -25.6294 0 
70.8921 -25.5998 0 70.9379 -25.5701 0 70.9835 -25.5404 0 
71.0292 -25.5107 0 71.0748 -25.481 0 71.1203 -25.4512 0 
71.1658 -25.4214 0 71.2111 -25.3916 0 71.2565 -25.3618 0 
71.3018 -25.3318 0 71.347 -25.302 0 71.3922 -25.2721 0 
71.4373 -25.2421 0 71.4823 -25.2122 0 71.5272 -25.1822 0 
71.5721 -25.1523 0 71.617 -25.1222 0 71.6618 -25.0922 0 
71.7065 -25.0622 0 71.7512 -25.0321 0 71.7958 -25.0019 0 
71.8403 -24.9718 0 71.8848 -24.9417 0 71.9292 -24.9115 0 
71.9735 -24.8813 0 72.0178 -24.8511 0 72.0621 -24.8209 0 
72.1062 -24.7907 0 72.1503 -24.7604 0 72.1944 -24.7302 0 
[...]
POINT_DATA 5000
VECTORS velocity double
17.3348 -12.3703 0 17.2209 -11.6165 0 17.1815 -11.2884 0 
17.1529 -11.0334 0 17.1291 -10.8176 0 17.1081 -10.6277 0 
17.0886 -10.4571 0 17.0701 -10.3014 0 17.0522 -10.158 0 
17.0345 -10.0249 0 17.0169 -9.90076 0 16.9992 -9.78443 0 
16.9815 -9.67507 0 16.9635 -9.572 0 16.9453 -9.47461 0 
16.9269 -9.38242 0 16.9081 -9.29508 0 16.889 -9.21213 0 
16.8695 -9.13329 0 16.8497 -9.05832 0 16.8295 -8.98693 0 
16.809 -8.91893 0 16.7881 -8.85411 0 16.7669 -8.7923 0 
16.7453 -8.73332 0 16.7233 -8.67704 0 16.7011 -8.62334 0 
16.6785 -8.57204 0 16.6555 -8.52305 0 16.6323 -8.47625 0 
16.6087 -8.43156 0 16.5849 -8.38888 0 16.5607 -8.34808 0 
16.5363 -8.30914 0 16.5116 -8.27195 0 16.4866 -8.23644 0 
16.4614 -8.20254 0 16.436 -8.17019 0 16.4103 -8.13932 0 
16.3843 -8.10986 0 16.3582 -8.08177 0 16.3318 -8.05499 0 
16.3053 -8.02947 0 16.2785 -8.00518 0 16.2516 -7.98205 0 
16.2245 -7.96003 0 16.1972 -7.93911 0 16.1697 -7.91924 0 
16.1421 -7.90037 0 16.1144 -7.88247 0 16.0865 -7.86549 0 
16.0585 -7.84942 0 16.0303 -7.83422 0 16.0021 -7.81985 0 
15.9737 -7.8063 0 15.9452 -7.79352 0 15.9167 -7.7815 0 
15.888 -7.77021 0 15.8593 -7.75963 0 15.8304 -7.74971 0 
15.8015 -7.74045 0 15.7726 -7.73182 0 15.7435 -7.7238 0 
15.7144 -7.71638 0 15.6853 -7.70952 0 15.6561 -7.70322 0 
15.6268 -7.69745 0 15.5976 -7.69219 0 15.5683 -7.68744 0 
15.5389 -7.68317 0 15.5096 -7.67935 0 15.4802 -7.67599 0 
15.4508 -7.67306 0 15.4214 -7.67056 0 15.392 -7.66846 0 
15.3626 -7.66675 0 15.3332 -7.66542 0 15.3038 -7.66446 0 
15.2744 -7.66386 0 15.245 -7.6636 0 15.2156 -7.66367 0 
15.1863 -7.66406 0 15.1569 -7.66476 0 15.1276 -7.66576 0 
15.0983 -7.66705 0 15.069 -7.66862 0 15.0398 -7.67047 0 
15.0106 -7.67257 0 14.9815 -7.67492 0 14.9524 -7.67753 0 
14.9233 -7.68036 0 14.8943 -7.68343 0 14.8653 -7.68671 0 
14.8364 -7.69021 0 14.8075 -7.69391 0 14.7787 -7.69781 0 
14.75 -7.7019 0 14.7213 -7.70617 0 14.6926 -7.71063 0 
14.6641 -7.71526 0 14.6355 -7.72005 0 14.6071 -7.725 0 
14.5787 -7.7301 0 14.5504 -7.73536 0 14.5222 -7.74075 0 
14.494 -7.74628 0 14.4659 -7.75195 0 14.4379 -7.75774 0 
14.41 -7.76365 0 14.3821 -7.76969 0 14.3543 -7.77584 0 
14.3266 -7.78209 0 14.299 -7.78845 0 14.2715 -7.7949 0 
14.2441 -7.80146 0 14.2167 -7.80811 0 14.1894 -7.81484 0 
14.1622 -7.82166 0 14.1351 -7.82856 0 14.1081 -7.83554 0 
14.0813 -7.84259 0 14.0544 -7.84971 0 14.0277 -7.8569 0 
14.0011 -7.86415 0 13.9746 -7.87146 0 13.9481 -7.87883 0 
13.9218 -7.88625 0 13.8955 -7.89373 0 13.8694 -7.90125 0 
13.8433 -7.90882 0 13.8174 -7.91644 0 13.7916 -7.92409 0 
13.7658 -7.93179 0 13.7402 -7.93951 0 13.7146 -7.94728 0 
13.6892 -7.95507 0 13.6639 -7.96289 0 13.6386 -7.97074 0 
13.6135 -7.97862 0 13.5885 -7.98651 0 13.5636 -7.99443 0 
13.5388 -8.00236 0 13.5141 -8.01032 0 13.4895 -8.01828 0 
13.465 -8.02626 0 13.4406 -8.03425 0 13.4164 -8.04224 0 
13.3922 -8.05025 0 13.3681 -8.05826 0 13.3442 -8.06627 0 
13.3204 -8.07429 0 13.2967 -8.0823 0 13.2731 -8.09031 0 
13.2496 -8.09833 0 13.2262 -8.10634 0 13.2029 -8.11434 0 
13.1797 -8.12234 0 13.1566 -8.13033 0 13.1337 -8.13831 0 
13.1109 -8.14628 0 13.0881 -8.15425 0 13.0655 -8.16219 0 
13.043 -8.17012 0 13.0206 -8.17803 0 12.9984 -8.18593 0 
12.9762 -8.19381 0 12.9541 -8.20167 0 12.9322 -8.20952 0 
12.9104 -8.21734 0 12.8887 -8.22514 0 12.8671 -8.23292 0 
12.8455 -8.24068 0 12.8242 -8.2484 0 12.803 -8.2561 0 
12.7818 -8.26378 0 12.7608 -8.27143 0 12.7398 -8.27906 0 
12.719 -8.28665 0 12.6983 -8.29421 0 12.6778 -8.30174 0 
12.6573 -8.30924 0 12.6369 -8.31671 0 12.6167 -8.32415 0 
12.5966 -8.33154 0 12.5766 -8.33891 0 12.5566 -8.34625 0 
12.5369 -8.35354 0 12.5172 -8.3608 0 12.4976 -8.36803 0 
12.4782 -8.37521 0 12.4588 -8.38236 0 12.4396 -8.38947 0 
12.4205 -8.39653 0 12.4015 -8.40356 0 12.3827 -8.41055 0 
12.3639 -8.41749 0 12.3452 -8.42441 0 12.3267 -8.43127 0 
12.3082 -8.43809 0 12.2899 -8.44487 0 12.2717 -8.4516 0 
12.2536 -8.45829 0 12.2356 -8.46494 0 12.2177 -8.47154 0 
12.2 -8.47809 0 12.1823 -8.4846 0 12.1648 -8.49106 0 
12.1474 -8.49748 0 12.13 -8.50385 0 12.1128 -8.51018 0 
12.0957 -8.51645 0 12.0787 -8.52268 0 12.0619 -8.52886 0 
12.0451 -8.53499 0 12.0285 -8.54106 0 12.0119 -8.54709 0 
11.9955 -8.55308 0 11.9792 -8.559 0 11.963 -8.56488 0 
11.9469 -8.57071 0 11.9309 -8.57649 0 11.915 -8.58222 0 
11.8992 -8.5879 0 11.8835 -8.59353 0 11.868 -8.59909 0 
11.8526 -8.6046 0 11.8372 -8.61007 0 11.822 -8.61549 0 
11.8069 -8.62085 0 11.7918 -8.62616 0 11.7769 -8.63142 0 
11.7621 -8.63662 0 11.7474 -8.64177 0 11.7328 -8.64687 0 
11.7184 -8.65191 0 11.704 -8.65688 0 11.6898 -8.66181 0 
11.6756 -8.66669 0 11.6616 -8.67151 0 11.6476 -8.67627 0 
11.6338 -8.68098 0 11.62 -8.68564 0 11.6064 -8.69024 0 
11.5929 -8.69478 0 11.5794 -8.69928 0 11.5662 -8.70369 0 
11.553 -8.70807 0 11.5399 -8.71239 0 11.5268 -8.71666 0 
11.514 -8.72087 0 11.5012 -8.72501 0 11.4885 -8.72912 0 
11.4759 -8.73314 0 11.4634 -8.73713 0 11.451 -8.74105 0 
11.4387 -8.74492 0 11.4266 -8.74872 0 11.4145 -8.75247 0 
11.4025 -8.75617 0 11.3907 -8.75981 0 11.3789 -8.76339 0 
11.3672 -8.76691 0 11.3557 -8.77038 0 11.3442 -8.77379 0 
11.3328 -8.77715 0 11.3216 -8.78044 0 11.3104 -8.78366 0 
11.2994 -8.78684 0 11.2884 -8.78996 0 11.2776 -8.79302 0 
11.2668 -8.79603 0 11.2561 -8.79898 0 11.2455 -8.80187 0 
11.235 -8.80471 0 11.2247 -8.80748 0 11.2144 -8.81019 0 
11.2042 -8.81285 0 11.1942 -8.81544 0 11.1842 -8.81798 0 
11.1743 -8.82047 0 11.1645 -8.8229 0 11.1548 -8.82526 0 
11.1452 -8.82757 0 11.1357 -8.82983 0 11.1263 -8.83202 0 
11.117 -8.83417 0 11.1078 -8.83624 0 11.0988 -8.83825 0 
11.0897 -8.84022 0 11.0808 -8.84212 0 11.0719 -8.84397 0 
11.0632 -8.84576 0 11.0546 -8.8475 0 11.046 -8.84918 0 
11.0375 -8.8508 0 11.0292 -8.85235 0 11.0209 -8.85386 0 
11.0128 -8.85529 0 11.0046 -8.85668 0 10.9967 -8.85801 0 
10.9888 -8.85929 0 10.9809 -8.8605 0 10.9732 -8.86167 0 
10.9656 -8.86277 0 10.958 -8.86381 0 10.9506 -8.8648 0 
10.9432 -8.86574 0 10.9359 -8.86661 0 10.9288 -8.86741 0 
10.9217 -8.86817 0 10.9147 -8.86888 0 10.9078 -8.86952 0 
10.9009 -8.87012 0 10.8942 -8.87066 0 10.8876 -8.87114 0 
10.881 -8.87156 0 10.8745 -8.87192 0 10.8681 -8.87224 0 
10.8619 -8.87248 0 10.8557 -8.87267 0 10.8495 -8.87282 0 
10.8435 -8.87291 0 10.8375 -8.87294 0 10.8317 -8.87292 0 
10.8259 -8.87284 0 10.8202 -8.8727 0 10.8145 -8.87251 0 
10.809 -8.87227 0 10.8036 -8.87195 0 10.7982 -8.8716 0 
10.793 -8.87119 0 10.7878 -8.87073 0 10.7826 -8.87022 0 
10.7776 -8.86964 0 10.7726 -8.86901 0 10.7678 -8.86834 0 
10.763 -8.8676 0 10.7583 -8.86681 0 10.7536 -8.86597 0 
10.7492 -8.86506 0 10.7447 -8.86411 0 10.7403 -8.8631 0 
10.736 -8.86204 0 10.7318 -8.86094 0 10.7277 -8.85977 0 
10.7236 -8.85856 0 10.7196 -8.85729 0 10.7157 -8.85597 0 
10.7119 -8.8546 0 10.7082 -8.85315 0 10.7045 -8.85167 0 
10.7009 -8.85015 0 10.6974 -8.84856 0 10.6939 -8.84693 0 
10.6906 -8.84524 0 10.6873 -8.8435 0 10.6841 -8.84172 0 
10.6809 -8.83988 0 10.6779 -8.83799 0 10.6749 -8.83605 0 
10.672 -8.83403 0 10.6692 -8.83199 0 10.6664 -8.8299 0 
10.6638 -8.82775 0 10.6611 -8.82556 0 10.6586 -8.82332 0 
10.6561 -8.82102 0 10.6537 -8.81868 0 10.6514 -8.81628 0 
10.6492 -8.81384 0 10.647 -8.81133 0 10.6449 -8.80879 0 
10.6429 -8.8062 0 10.6409 -8.80356 0 10.639 -8.80087 0 
10.6372 -8.79814 0 10.6355 -8.79535 0 10.6338 -8.79252 0 
10.6322 -8.78964 0 10.6306 -8.78672 0 10.6291 -8.78374 0 
10.6278 -8.7807 0 10.6265 -8.77763 0 10.6252 -8.77451 0 
10.624 -8.77135 0 10.6229 -8.76814 0 10.6218 -8.76488 0 
10.6208 -8.76158 0 10.6198 -8.75823 0 10.619 -8.75483 0 
10.6182 -8.75139 0 10.6175 -8.74788 0 10.6168 -8.74435 0 
10.6162 -8.74077 0 10.6157 -8.73715 0 10.6152 -8.73348 0 
10.6148 -8.72977 0 10.6144 -8.72602 0 10.6141 -8.72221 0 
10.6139 -8.71837 0 10.6138 -8.71448 0 10.6137 -8.71053 0 
10.6137 -8.70655 0 10.6137 -8.70253 0 10.6138 -8.69847 0 
10.614 -8.69436 0 10.6142 -8.69021 0 10.6144 -8.68602 0 
10.6148 -8.68178 0 10.6151 -8.67751 0 10.6156 -8.67319 0 
10.6161 -8.66883 0 10.6167 -8.6644 0 10.6174 -8.65996 0 
10.6181 -8.65547 0 10.6188 -8.65095 0 10.6196 -8.64638 0 
10.6205 -8.64177 0 10.6214 -8.63713 0 10.6223 -8.63244 0 
10.6234 -8.62771 0 10.6245 -8.62294 0 10.6257 -8.61811 0 
10.6269 -8.61326 0 10.6281 -8.60837 0 10.6295 -8.60345 0 
10.6308 -8.59848 0 10.6322 -8.59348 0 10.6337 -8.58843 0 
10.6352 -8.58335 0 10.6368 -8.57823 0 10.6385 -8.57308 0 
10.6401 -8.56788 0 10.6419 -8.56263 0 10.6437 -8.55736 0 
10.6456 -8.55205 0 10.6475 -8.54671 0 10.6494 -8.54133 0 
10.6514 -8.53591 0 10.6535 -8.53046 0 10.6556 -8.52497 0 
10.6577 -8.51944 0 10.6599 -8.51388 0 10.6622 -8.50826 0 
10.6645 -8.50263 0 10.6669 -8.49696 0 10.6693 -8.49126 0 
10.6717 -8.48553 0 10.6742 -8.47975 0 10.6768 -8.47395 0 
10.6793 -8.46811 0 10.682 -8.46224 0 10.6847 -8.45633 0 
10.6875 -8.45037 0 10.6902 -8.44439 0 10.6931 -8.43839 0 
10.6959 -8.43235 0 10.6988 -8.42628 0 10.7018 -8.42017 0 
10.7048 -8.41404 0 10.7078 -8.40787 0 10.7109 -8.40167 0 
10.7141 -8.39544 0 10.7172 -8.38917 0 10.7205 -8.38286 0 
10.7238 -8.37653 0 10.7271 -8.37018 0 10.7304 -8.36379 0 
10.7339 -8.35737 0 10.7373 -8.35093 0 10.7407 -8.34445 0 
10.7443 -8.33795 0 10.7478 -8.33141 0 10.7514 -8.32485 0 
10.7551 -8.31823 0 10.7588 -8.31161 0 10.7625 -8.30495 0 
10.7663 -8.29828 0 10.7701 -8.29157 0 10.7739 -8.28483 0 
10.7778 -8.27807 0 10.7817 -8.27128 0 10.7857 -8.26446 0 
10.7896 -8.25761 0 10.7937 -8.25074 0 10.7978 -8.24382 0 
10.8019 -8.23689 0 10.806 -8.22994 0 10.8102 -8.22296 0 
10.8144 -8.21595 0 10.8186 -8.20892 0 10.8229 -8.20187 0 
10.8272 -8.19479 0 10.8316 -8.18769 0 10.836 -8.18055 0 
10.8404 -8.17337 0 10.8449 -8.16619 0 10.8494 -8.15899 0 
10.8539 -8.15176 0 10.8584 -8.1445 0 10.863 -8.13723 0 
10.8677 -8.12993 0 10.8723 -8.12261 0 10.877 -8.11526 0 
10.8817 -8.10789 0 10.8864 -8.1005 0 10.8913 -8.09306 0 
10.8961 -8.08562 0 10.9009 -8.07817 0 10.9058 -8.07069 0 
10.9107 -8.06319 0 10.9156 -8.05566 0 10.9206 -8.04812 0 
10.9256 -8.04055 0 10.9306 -8.03297 0 10.9356 -8.02536 0 
10.9408 -8.01771 0 10.9458 -8.01006 0 10.951 -8.00239 0 
10.9561 -7.99471 0 10.9613 -7.987 0 10.9665 -7.97928 0 
10.9717 -7.97153 0 10.977 -7.96376 0 10.9823 -7.95598 0 
10.9876 -7.94818 0 10.993 -7.94033 0 10.9984 -7.9325 0 
11.0038 -7.92464 0 11.0092 -7.91676 0 11.0146 -7.90887 0 
11.0201 -7.90096 0 11.0256 -7.89304 0 11.0311 -7.88509 0 
11.0366 -7.87713 0 11.0422 -7.86915 0 11.0478 -7.86116 0 
11.0535 -7.85312 0 11.0591 -7.84509 0 11.0647 -7.83705 0 
11.0704 -7.82899 0 11.0761 -7.82092 0 11.0818 -7.81283 0 
11.0876 -7.80472 0 11.0933 -7.7966 0 11.0991 -7.78847 0 
11.1049 -7.78032 0 11.1108 -7.77213 0 11.1167 -7.76396 0 
11.1225 -7.75576 0 11.1284 -7.74756 0 11.1343 -7.73934 0 
11.1402 -7.7311 0 11.1462 -7.72286 0 11.1521 -7.7146 0 
11.1581 -7.70633 0 11.1641 -7.69804 0 11.1702 -7.68972 0 
11.1762 -7.68141 0 11.1822 -7.67308 0 11.1883 -7.66475 0 
11.1944 -7.65641 0 11.2005 -7.64805 0 11.2066 -7.63968 0 
11.2128 -7.63129 0 11.2189 -7.6229 0 11.2251 -7.6145 0 
11.2313 -7.60609 0 11.2375 -7.59763 0 11.2437 -7.5892 0 
11.25 -7.58075 0 11.2562 -7.5723 0 11.2625 -7.56383 0 
11.2687 -7.55536 0 11.275 -7.54687 0 11.2813 -7.53838 0 
11.2876 -7.52987 0 11.294 -7.52136 0 11.3004 -7.51281 0 
11.3067 -7.50428 0 11.3131 -7.49574 0 11.3195 -7.48719 0 
11.3259 -7.47863 0 11.3323 -7.47007 0 11.3387 -7.4615 0 
11.3451 -7.45292 0 11.3516 -7.44433 0 11.3581 -7.43574 0 
11.3645 -7.42714 0 11.3711 -7.4185 0 11.3776 -7.40989 0 
11.384 -7.40126 0 11.3906 -7.39263 0 11.3971 -7.38399 0 
11.4036 -7.37535 0 11.4102 -7.3667 0 11.4167 -7.35804 0 
11.4233 -7.34939 0 11.4298 -7.34072 0 11.4365 -7.33201 0 
11.4431 -7.32334 0 11.4497 -7.31465 0 11.4563 -7.30597 0 
11.4629 -7.29727 0 11.4695 -7.28858 0 11.4761 -7.27988 0 
11.4828 -7.27117 0 11.4895 -7.26246 0 11.4961 -7.25374 0 
11.5028 -7.24502 0 11.5095 -7.23627 0 11.5162 -7.22754 0 
11.5229 -7.21881 0 11.5296 -7.21008 0 11.5362 -7.20134 0 
11.5429 -7.1926 0 11.5497 -7.18385 0 11.5564 -7.1751 0 
11.5631 -7.16636 0 11.5698 -7.1576 0 11.5766 -7.14882 0 
11.5834 -7.14006 0 11.5901 -7.1313 0 11.5969 -7.12254 0 
11.6036 -7.11378 0 11.6104 -7.10501 0 11.6172 -7.09624 0 
11.6239 -7.08747 0 11.6307 -7.0787 0 11.6375 -7.06993 0 
11.6443 -7.06116 0 11.6511 -7.05236 0 11.6579 -7.04358 0 
11.6647 -7.03481 0 11.6715 -7.02603 0 11.6783 -7.01726 0 
11.6851 -7.00848 0 11.6919 -6.9997 0 11.6987 -6.99092 0 
11.7056 -6.98215 0 11.7124 -6.97336 0 11.7192 -6.96456 0 
11.7261 -6.95578 0 11.7329 -6.94701 0 11.7397 -6.93824 0 
11.7465 -6.92946 0 11.7534 -6.92069 0 11.7602 -6.91191 0 
11.767 -6.90314 0 11.7739 -6.89437 0 11.7807 -6.8856 0 
11.7876 -6.8768 0 11.7944 -6.86804 0 11.8013 -6.85927 0 
11.8081 -6.85051 0 11.8149 -6.84175 0 11.8218 -6.83299 0 
11.8286 -6.82424 0 11.8355 -6.81548 0 11.8423 -6.80673 0 
11.8492 -6.79798 0 11.856 -6.78923 0 11.8629 -6.78046 0 
11.8697 -6.77172 0 11.8766 -6.76297 0 11.8834 -6.75424 0 
11.8903 -6.74551 0 11.8971 -6.73678 0 11.9039 -6.72805 0 
11.9108 -6.71933 0 11.9176 -6.71061 0 11.9244 -6.70189 0 
11.9313 -6.69315 0 11.9382 -6.68445 0 11.945 -6.67574 0 
11.9518 -6.66704 0 11.9586 -6.65835 0 11.9655 -6.64966 0 
11.9723 -6.64097 0 11.9791 -6.63228 0 11.9859 -6.62361 0 
11.9927 -6.61493 0 11.9995 -6.60626 0 12.0064 -6.59758 0 
12.0132 -6.58891 0 12.02 -6.58026 0 12.0268 -6.57161 0 
12.0336 -6.56297 0 12.0404 -6.55432 0 12.0472 -6.5457 0 
12.054 -6.53707 0 12.0608 -6.52844 0 12.0676 -6.51983 0 
12.0744 -6.51119 0 12.0812 -6.50259 0 12.088 -6.49398 0 
12.0947 -6.48539 0 12.1015 -6.4768 0 12.1083 -6.46822 0 
12.115 -6.45965 0 12.1218 -6.45108 0 12.1285 -6.44252 0 
12.1353 -6.43396 0 12.1421 -6.42539 0 12.1488 -6.41684 0 
12.1556 -6.4083 0 12.1623 -6.39978 0 12.169 -6.39126 0 
12.1757 -6.38273 0 12.1825 -6.37423 0 12.1892 -6.36573 0 
12.1959 -6.35723 0 12.2026 -6.34875 0 12.2093 -6.34027 0 
12.216 -6.33177 0 12.2227 -6.3233 0 12.2294 -6.31485 0 
12.2361 -6.3064 0 12.2427 -6.29795 0 12.2494 -6.28952 0 
12.2561 -6.2811 0 12.2627 -6.27268 0 12.2693 -6.26427 0 
12.276 -6.25586 0 12.2827 -6.24744 0 12.2893 -6.23906 0 
12.2959 -6.23068 0 12.3026 -6.22231 0 12.3092 -6.21395 0 
12.3158 -6.2056 0 12.3224 -6.19726 0 12.329 -6.18892 0 
12.3356 -6.1806 0 12.3422 -6.17228 0 12.3487 -6.16396 0 
12.3554 -6.15564 0 12.3619 -6.14735 0 12.3685 -6.13907 0 
12.375 -6.13079 0 12.3816 -6.12253 0 12.3881 -6.11427 0 
12.3947 -6.10602 0 12.4012 -6.09779 0 12.4077 -6.08956 0 
12.4142 -6.08134 0 12.4208 -6.07311 0 12.4273 -6.06491 0 
12.4338 -6.05672 0 12.4403 -6.04854 0 12.4468 -6.04037 0 
12.4532 -6.03221 0 12.4597 -6.02405 0 12.4661 -6.01592 0 
12.4726 -6.00778 0 12.479 -5.99966 0 12.4855 -5.99152 0 
12.492 -5.98343 0 12.4984 -5.97533 0 12.5048 -5.96725 0 
12.5112 -5.95918 0 12.5176 -5.95111 0 12.524 -5.94307 0 
12.5304 -5.93502 0 12.5368 -5.92699 0 12.5431 -5.91897 0 
12.5495 -5.91096 0 12.5559 -5.90294 0 12.5623 -5.89495 0 
12.5686 -5.88697 0 12.5749 -5.879 0 12.5813 -5.87105 0 
12.5876 -5.8631 0 12.5939 -5.85517 0 12.6002 -5.84724 0 
12.6065 -5.83932 0 12.6128 -5.83142 0 12.6191 -5.8235 0 
12.6254 -5.81562 0 12.6317 -5.80775 0 12.6379 -5.79989 0 
12.6442 -5.79204 0 12.6504 -5.78421 0 12.6566 -5.77638 0 
12.6629 -5.76856 0 12.6691 -5.76076 0 12.6753 -5.75296 0 
12.6815 -5.74518 0 12.6878 -5.73739 0 12.6939 -5.72963 0 
12.7001 -5.72189 0 12.7063 -5.71414 0 12.7124 -5.70642 0 
12.7186 -5.69871 0 12.7248 -5.69101 0 12.7309 -5.68332 0 
12.737 -5.67563 0 12.7432 -5.66797 0 12.7493 -5.6603 0 
12.7554 -5.65265 0 12.7615 -5.64501 0 12.7676 -5.63739 0 
12.7737 -5.62979 0 12.7798 -5.62219 0 12.7858 -5.6146 0 
12.7919 -5.60703 0 12.798 -5.59947 0 12.804 -5.59192 0 
12.8101 -5.58436 0 12.8161 -5.57683 0 12.8221 -5.56931 0 
12.8281 -5.56181 0 12.8341 -5.55433 0 12.8401 -5.54684 0 
12.8461 -5.53937 0 12.8521 -5.53193 0 12.8581 -5.52448 0 
12.864 -5.51705 0 12.87 -5.50963 0 12.876 -5.5022 0 
12.8819 -5.49481 0 12.8878 -5.48743 0 12.8937 -5.48006 0 
12.8997 -5.47271 0 12.9056 -5.46536 0 12.9115 -5.45803 0 
12.9173 -5.4507 0 12.9232 -5.44339 0 12.9291 -5.4361 0 
12.935 -5.4288 0 12.9409 -5.42152 0 12.9467 -5.41427 0 
12.9526 -5.40703 0 12.9584 -5.39979 0 12.9642 -5.39257 0 
12.97 -5.38536 0 12.9758 -5.37816 0 12.9816 -5.37097 0 
12.9874 -5.3638 0 12.9932 -5.35664 0 12.999 -5.34949 0 
13.0048 -5.34235 0 13.0105 -5.33523 0 13.0163 -5.32812 0 
13.022 -5.32103 0 13.0278 -5.31394 0 13.0335 -5.30686 0 
13.0392 -5.2998 0 13.0449 -5.29276 0 13.0507 -5.28573 0 
13.0564 -5.27871 0 13.062 -5.27169 0 13.0677 -5.2647 0 
13.0734 -5.25772 0 13.0791 -5.25074 0 13.0847 -5.24378 0 
13.0904 -5.23684 0 13.096 -5.22991 0 13.1017 -5.22298 0 
13.1073 -5.21607 0 13.1129 -5.20918 0 13.1185 -5.2023 0 
13.1241 -5.19543 0 13.1297 -5.18857 0 13.1353 -5.18173 0 
13.1409 -5.1749 0 13.1464 -5.16808 0 13.152 -5.16127 0 
13.1576 -5.15448 0 13.1631 -5.14771 0 13.1687 -5.14094 0 
13.1742 -5.13418 0 13.1797 -5.12745 0 13.1852 -5.12071 0 
13.1908 -5.114 0 13.1963 -5.1073 0 13.2018 -5.10061 0 
13.2072 -5.09393 0 13.2127 -5.08727 0 13.2182 -5.08061 0 
13.2237 -5.07398 0 13.2292 -5.06735 0 13.2346 -5.06074 0 
13.24 -5.05414 0 13.2455 -5.04755 0 13.2509 -5.04098 0 
13.2563 -5.03442 0 13.2617 -5.02787 0 13.2672 -5.02134 0 
13.2726 -5.01481 0 13.278 -5.00831 0 13.2833 -5.00181 0 
13.2887 -4.99533 0 13.2941 -4.98886 0 13.2995 -4.9824 0 
13.3048 -4.97595 0 13.3102 -4.96952 0 13.3155 -4.96311 0 
13.3209 -4.9567 0 13.3262 -4.9503 0 13.3315 -4.94393 0 
13.3368 -4.93756 0 13.3421 -4.93121 0 13.3474 -4.92486 0 
13.3527 -4.91854 0 13.358 -4.91222 0 13.3633 -4.90591 0 
13.3686 -4.89963 0 13.3738 -4.89335 0 13.3791 -4.88708 0 
13.3843 -4.88083 0 13.3896 -4.8746 0 13.3949 -4.86837 0 
13.4001 -4.86216 0 13.4053 -4.85596 0 13.4105 -4.84977 0 
13.4158 -4.8436 0 13.421 -4.83744 0 13.4262 -4.83129 0 
13.4314 -4.82516 0 13.4366 -4.81904 0 13.4417 -4.81292 0 
13.4469 -4.80683 0 13.4521 -4.80074 0 13.4572 -4.79468 0 
13.4624 -4.78862 0 13.4675 -4.78257 0 13.4727 -4.77654 0 
13.4778 -4.77052 0 13.483 -4.76451 0 13.4881 -4.75852 0 
13.4932 -4.75254 0 13.4983 -4.74656 0 13.5034 -4.74061 0 
13.5085 -4.73467 0 13.5136 -4.72874 0 13.5187 -4.72282 0 
13.5238 -4.71692 0 13.5289 -4.71103 0 13.534 -4.70515 0 
13.539 -4.69928 0 13.5441 -4.69342 0 13.5491 -4.68759 0 
13.5542 -4.68175 0 13.5592 -4.67594 0 13.5643 -4.67014 0 
13.5693 -4.66435 0 13.5743 -4.65857 0 13.5793 -4.6528 0 
13.5844 -4.64705 0 13.5894 -4.64131 0 13.5944 -4.63559 0 
13.5994 -4.62988 0 13.6044 -4.62417 0 13.6094 -4.61848 0 
13.6144 -4.61281 0 13.6193 -4.60714 0 13.6243 -4.60149 0 
13.6293 -4.59585 0 13.6342 -4.59022 0 13.6392 -4.58462 0 
13.6442 -4.57901 0 13.6491 -4.57342 0 13.654 -4.56784 0 
13.659 -4.56228 0 13.6639 -4.55673 0 13.6688 -4.55119 0 
13.6738 -4.54566 0 13.6787 -4.54015 0 13.6836 -4.53465 0 
13.6885 -4.52916 0 13.6934 -4.52369 0 13.6983 -4.51822 0 
13.7032 -4.51277 0 13.7081 -4.50733 0 13.7129 -4.5019 0 
13.7178 -4.49649 0 13.7227 -4.49108 0 13.7276 -4.4857 0 
13.7325 -4.48032 0 13.7373 -4.47496 0 13.7422 -4.4696 0 
13.747 -4.46426 0 13.7519 -4.45893 0 13.7567 -4.45361 0 
13.7616 -4.44831 0 13.7664 -4.44302 0 13.7712 -4.43774 0 
13.776 -4.43247 0 13.7809 -4.42722 0 13.7857 -4.42197 0 
13.7905 -4.41674 0 13.7953 -4.41152 0 13.8001 -4.40632 0 
13.8049 -4.40113 0 13.8097 -4.39594 0 13.8145 -4.39077 0 
13.8193 -4.38561 0 13.8241 -4.38047 0 13.8289 -4.37533 0 
13.8337 -4.37022 0 13.8384 -4.3651 0 13.8432 -4.36001 0 
13.848 -4.35492 0 13.8527 -4.34985 0 13.8575 -4.34478 0 
13.8622 -4.33973 0 13.867 -4.3347 0 13.8717 -4.32967 0 
13.8765 -4.32466 0 13.8812 -4.31966 0 13.886 -4.31467 0 
13.8907 -4.30969 0 13.8955 -4.30473 0 13.9002 -4.29977 0 
13.9049 -4.29483 0 13.9096 -4.28989 0 13.9144 -4.28498 0 
13.9191 -4.28007 0 13.9238 -4.27517 0 13.9285 -4.27029 0 
13.9332 -4.26541 0 13.9379 -4.26056 0 13.9426 -4.25571 0 
13.9473 -4.25087 0 13.952 -4.24605 0 13.9567 -4.24124 0 
13.9614 -4.23643 0 13.9661 -4.23165 0 13.9708 -4.22686 0 
13.9754 -4.22209 0 13.9801 -4.21734 0 13.9848 -4.2126 0 
13.9895 -4.20786 0 13.9941 -4.20314 0 13.9988 -4.19843 0 
14.0035 -4.19374 0 14.0082 -4.18905 0 14.0128 -4.18438 0 
14.0175 -4.17972 0 14.0221 -4.17506 0 14.0268 -4.17042 0 