# vtk DataFile Version 3.0
vtk output
ASCII
DATASET POLYDATA
POINTS 5000 float
8.59142 -34.986 0 12.0137 -34.6157 0 13.4464 -34.4503 0 
14.5494 -34.3202 0 15.4808 -34.2088 0 16.3019 -34.1099 0 
17.0441 -34.02 0 17.7263 -33.9372 0 18.3607 -33.8601 0 
18.9557 -33.7879 0 19.5177 -33.7198 0 20.0513 -33.6552 0 
20.5602 -33.5939 0 21.0472 -33.5354 0 21.5148 -33.4795 0 
21.965 -33.4259 0 22.3992 -33.3743 0 22.8191 -33.3249 0 
23.2258 -33.2772 0 23.6202 -33.2312 0 24.0033 -33.1868 0 
24.376 -33.1439 0 24.7388 -33.1024 0 25.0924 -33.0622 0 
25.4375 -33.0232 0 25.7744 -32.9854 0 26.1036 -32.9486 0 
26.4256 -32.9129 0 26.7407 -32.8782 0 27.0494 -32.8444 0 
27.3518 -32.8115 0 27.6483 -32.7795 0 27.9392 -32.7483 0 
28.2246 -32.7179 0 28.5049 -32.6882 0 28.7802 -32.6592 0 
29.0507 -32.6309 0 29.3168 -32.6031 0 29.5784 -32.5761 0 
29.8357 -32.5497 0 30.0891 -32.5238 0 30.3385 -32.4985 0 
30.5841 -32.4736 0 30.8259 -32.4493 0 31.0643 -32.4255 0 
31.2994 -32.4022 0 31.531 -32.3793 0 31.7594 -32.3567 0 
31.9847 -32.3346 0 32.207 -32.313 0 32.4264 -32.2917 0 
32.6429 -32.2708 0 32.8568 -32.2502 0 33.0678 -32.23 0 
33.2763 -32.2101 0 33.4822 -32.1905 0 33.6857 -32.1712 0 
33.8867 -32.1522 0 34.0855 -32.1334 0 34.2819 -32.115 0 
34.4761 -32.0968 0 34.6681 -32.0789 0 34.8581 -32.0612 0 
35.0459 -32.0437 0 35.2317 -32.0265 0 35.4156 -32.0095 0 
35.5976 -31.9926 0 35.7776 -31.976 0 35.9558 -31.9595 0 
36.1323 -31.9432 0 36.307 -31.9272 0 36.4799 -31.9113 0 
36.6511 -31.8955 0 36.8208 -31.8799 0 36.9887 -31.8645 0 
37.1552 -31.8492 0 37.3201 -31.834 0 37.4835 -31.819 0 
37.6453 -31.8041 0 37.8058 -31.7892 0 37.9648 -31.7745 0 
38.1225 -31.76 0 38.2788 -31.7455 0 38.4336 -31.7312 0 
38.5872 -31.7169 0 38.7396 -31.7027 0 38.8905 -31.6887 0 
39.0403 -31.6747 0 39.1889 -31.6607 0 39.3363 -31.6468 0 
39.4825 -31.633 0 39.6275 -31.6193 0 39.7714 -31.6057 0 
39.9142 -31.5921 0 40.0558 -31.5786 0 40.1965 -31.5651 0 
40.336 -31.5517 0 40.4745 -31.5383 0 40.612 -31.525 0 
40.7485 -31.5116 0 40.884 -31.4983 0 41.0185 -31.4851 0 
41.152 -31.4719 0 41.2847 -31.4588 0 41.4163 -31.4456 0 
41.5471 -31.4325 0 41.677 -31.4194 0 41.8059 -31.4064 0 
41.9341 -31.3933 0 42.0614 -31.3803 0 42.1878 -31.3672 0 
42.3134 -31.3542 0 42.4381 -31.3412 0 42.5621 -31.3282 0 
42.6853 -31.3152 0 42.8077 -31.3022 0 42.9293 -31.2893 0 
43.0502 -31.2763 0 43.1703 -31.2633 0 43.2896 -31.2503 0 
43.4083 -31.2372 0 43.5262 -31.2242 0 43.6435 -31.2112 0 
43.76 -31.1982 0 43.8758 -31.1852 0 43.991 -31.1721 0 
44.1056 -31.1591 0 44.2194 -31.146 0 44.3325 -31.1329 0 
44.4451 -31.1198 0 44.557 -31.1067 0 44.6684 -31.0934 0 
44.7791 -31.0803 0 44.8891 -31.067 0 44.9987 -31.0538 0 
45.1076 -31.0406 0 45.2159 -31.0273 0 45.3236 -31.014 0 
45.4307 -31.0007 0 45.5373 -30.9873 0 45.6434 -30.9739 0 
45.7489 -30.9604 0 45.8539 -30.9469 0 45.9584 -30.9334 0 
46.0623 -30.9199 0 46.1657 -30.9064 0 46.2686 -30.8928 0 
46.3709 -30.8791 0 46.4728 -30.8654 0 46.5742 -30.8517 0 
46.675 -30.838 0 46.7755 -30.8241 0 46.8753 -30.8103 0 
46.9749 -30.7964 0 47.0738 -30.7825 0 47.1724 -30.7685 0 
47.2704 -30.7545 0 47.3681 -30.7405 0 47.4652 -30.7264 0 
47.562 -30.7123 0 47.6583 -30.6981 0 47.7542 -30.6838 0 
47.8497 -30.6695 0 47.9447 -30.6552 0 48.0393 -30.6408 0 
48.1335 -30.6264 0 48.2273 -30.6119 0 48.3208 -30.5974 0 
48.4137 -30.5828 0 48.5064 -30.5682 0 48.5986 -30.5536 0 
48.6905 -30.5389 0 48.7819 -30.524 0 48.873 -30.5092 0 
48.9637 -30.4943 0 49.0541 -30.4794 0 49.1441 -30.4644 0 
49.2337 -30.4494 0 49.323 -30.4343 0 49.4119 -30.4192 0 
49.5005 -30.404 0 49.5887 -30.3888 0 49.6766 -30.3735 0 
49.7641 -30.3581 0 49.8514 -30.3427 0 49.9383 -30.3272 0 
50.0248 -30.3117 0 50.111 -30.2961 0 50.1969 -30.2805 0 
50.2825 -30.2648 0 50.3678 -30.2491 0 50.4527 -30.2333 0 
50.5374 -30.2175 0 50.6218 -30.2015 0 50.7058 -30.1855 0 
50.7895 -30.1695 0 50.873 -30.1535 0 50.9561 -30.1373 0 
51.039 -30.1212 0 51.1216 -30.1049 0 51.2038 -30.0886 0 
51.2859 -30.0723 0 51.3676 -30.0559 0 51.449 -30.0394 0 
51.5302 -30.0228 0 51.6111 -30.0062 0 51.6917 -29.9895 0 
51.7721 -29.9729 0 51.8522 -29.9561 0 51.932 -29.9393 0 
52.0116 -29.9224 0 52.0909 -29.9055 0 52.1699 -29.8885 0 
52.2488 -29.8715 0 52.3273 -29.8542 0 52.4056 -29.8371 0 
52.4837 -29.8199 0 52.5614 -29.8026 0 52.639 -29.7852 0 
52.7163 -29.7679 0 52.7934 -29.7504 0 52.8703 -29.7329 0 
52.9469 -29.7153 0 53.0233 -29.6977 0 53.0994 -29.6799 0 
53.1753 -29.6622 0 53.2511 -29.6444 0 53.3265 -29.6265 0 
53.4018 -29.6086 0 53.4768 -29.5906 0 53.5516 -29.5726 0 
53.6262 -29.5545 0 53.7006 -29.5364 0 53.7748 -29.5181 0 
53.8487 -29.4999 0 53.9225 -29.4814 0 53.996 -29.4631 0 
54.0693 -29.4446 0 54.1424 -29.4261 0 54.2153 -29.4076 0 
54.288 -29.389 0 54.3605 -29.3703 0 54.4328 -29.3516 0 
54.5049 -29.3328 0 54.5769 -29.314 0 54.6486 -29.295 0 
54.7201 -29.276 0 54.7914 -29.257 0 54.8626 -29.2379 0 
54.9336 -29.2188 0 55.0043 -29.1996 0 55.0749 -29.1804 0 
55.1452 -29.1611 0 55.2155 -29.1418 0 55.2855 -29.1223 0 
55.3554 -29.1029 0 55.4251 -29.0833 0 55.4945 -29.0637 0 
55.5639 -29.0441 0 55.633 -29.0244 0 55.702 -29.0046 0 
55.7707 -28.9848 0 55.8394 -28.965 0 55.9078 -28.9451 0 
55.9761 -28.9251 0 56.0442 -28.9051 0 56.1122 -28.8849 0 
56.18 -28.8648 0 56.2476 -28.8446 0 56.315 -28.8244 0 
56.3823 -28.8041 0 56.4494 -28.7838 0 56.5164 -28.7634 0 
56.5833 -28.7429 0 56.6499 -28.7224 0 56.7163 -28.7019 0 
56.7827 -28.6813 0 56.8489 -28.6605 0 56.9149 -28.6398 0 
56.9808 -28.619 0 57.0466 -28.5982 0 57.1121 -28.5773 0 
57.1775 -28.5564 0 57.2428 -28.5354 0 57.3079 -28.5144 0 
57.3729 -28.4933 0 57.4377 -28.4722 0 57.5024 -28.4509 0 
57.5669 -28.4296 0 57.6313 -28.4084 0 57.6956 -28.387 0 
57.7596 -28.3656 0 57.8236 -28.3442 0 57.8875 -28.3227 0 
57.9512 -28.3012 0 58.0147 -28.2796 0 58.0781 -28.2579 0 
58.1414 -28.2361 0 58.2046 -28.2144 0 58.2676 -28.1926 0 
58.3304 -28.1707 0 58.3932 -28.1488 0 58.4558 -28.1269 0 
58.5182 -28.1049 0 58.5805 -28.0829 0 58.6427 -28.0608 0 
58.7048 -28.0386 0 58.7667 -28.0165 0 58.8286 -27.9941 0 
58.8903 -27.9718 0 58.9518 -27.9495 0 59.0132 -27.9271 0 
59.0746 -27.9047 0 59.1358 -27.8822 0 59.1968 -27.8597 0 
59.2578 -27.8372 0 59.3185 -27.8145 0 59.3792 -27.7919 0 
59.4398 -27.7691 0 59.5003 -27.7463 0 59.5606 -27.7235 0 
59.6208 -27.7007 0 59.6809 -27.6778 0 59.7408 -27.6549 0 
59.8007 -27.6319 0 59.8604 -27.6088 0 59.92 -27.5858 0 
59.9795 -27.5627 0 60.0389 -27.5394 0 60.0982 -27.5162 0 
60.1573 -27.4929 0 60.2164 -27.4697 0 60.2753 -27.4463 0 
60.3341 -27.4229 0 60.3927 -27.3995 0 60.4514 -27.3761 0 
60.5098 -27.3526 0 60.5682 -27.329 0 60.6265 -27.3054 0 
60.6846 -27.2817 0 60.7426 -27.258 0 60.8005 -27.2342 0 
60.8583 -27.2105 0 60.916 -27.1867 0 60.9736 -27.1628 0 
61.0311 -27.139 0 61.0885 -27.115 0 61.1458 -27.091 0 
61.2029 -27.067 0 61.26 -27.0429 0 61.317 -27.0188 0 
61.3739 -26.9946 0 61.4306 -26.9705 0 61.4873 -26.9463 0 
61.5438 -26.922 0 61.6002 -26.8977 0 61.6565 -26.8734 0 
61.7128 -26.849 0 61.7689 -26.8246 0 61.8249 -26.8002 0 
61.8809 -26.7756 0 61.9367 -26.751 0 61.9925 -26.7265 0 
62.0481 -26.7019 0 62.1036 -26.6772 0 62.1591 -26.6525 0 
62.2144 -26.6278 0 62.2696 -26.6031 0 62.3248 -26.5783 0 
62.3798 -26.5535 0 62.4348 -26.5285 0 62.4897 -26.5036 0 
62.5444 -26.4786 0 62.5991 -26.4537 0 62.6536 -26.4287 0 
62.7081 -26.4036 0 62.7625 -26.3785 0 62.8167 -26.3534 0 
62.8709 -26.3283 0 62.925 -26.3031 0 62.979 -26.2779 0 
63.0329 -26.2525 0 63.0868 -26.2272 0 63.1405 -26.2019 0 
63.1941 -26.1765 0 63.2476 -26.1511 0 63.301 -26.1257 0 
63.3544 -26.1002 0 63.4077 -26.0747 0 63.4609 -26.0492 0 
63.5139 -26.0237 0 63.5669 -25.9979 0 63.6199 -25.9723 0 
63.6727 -25.9467 0 63.7254 -25.921 0 63.778 -25.8952 0 
63.8306 -25.8695 0 63.883 -25.8437 0 63.9354 -25.8179 0 
63.9876 -25.792 0 64.0399 -25.7662 0 64.092 -25.7401 0 
64.144 -25.7142 0 64.196 -25.6882 0 64.2478 -25.6622 0 
64.2995 -25.6362 0 64.3512 -25.6101 0 64.4028 -25.584 0 
64.4543 -25.5579 0 64.5058 -25.5317 0 64.5571 -25.5055 0 
64.6083 -25.4793 0 64.6595 -25.453 0 64.7106 -25.4267 0 
64.7616 -25.4004 0 64.8125 -25.3741 0 64.8633 -25.3477 0 
64.9141 -25.3213 0 64.9647 -25.2949 0 65.0153 -25.2685 0 
65.0658 -25.242 0 65.1162 -25.2155 0 65.1666 -25.1889 0 
65.2168 -25.1623 0 65.267 -25.1357 0 65.317 -25.1091 0 
65.3671 -25.0825 0 65.417 -25.0558 0 65.4668 -25.0291 0 
65.5166 -25.0024 0 65.5662 -24.9757 0 65.6159 -24.9489 0 
65.6654 -24.9221 0 65.7149 -24.8952 0 65.7642 -24.8684 0 
65.8135 -24.8415 0 65.8627 -24.8146 0 65.9118 -24.7877 0 
65.9608 -24.7607 0 66.0098 -24.7338 0 66.0587 -24.7068 0 
66.1075 -24.6798 0 66.1562 -24.6527 0 66.2048 -24.6255 0 
66.2534 -24.5985 0 66.3019 -24.5714 0 66.3503 -24.5442 0 
66.3987 -24.5171 0 66.4469 -24.4899 0 66.4951 -24.4627 0 
66.5432 -24.4355 0 66.5912 -24.4082 0 66.6392 -24.3809 0 
66.6871 -24.3535 0 66.7349 -24.3262 0 66.7826 -24.2989 0 
66.8302 -24.2715 0 66.8778 -24.2441 0 66.9253 -24.2167 0 
66.9727 -24.1893 0 67.0201 -24.1619 0 67.0673 -24.1344 0 
67.1145 -24.1069 0 67.1616 -24.0794 0 67.2087 -24.0518 0 
67.2557 -24.0242 0 67.3026 -23.9966 0 67.3494 -23.9691 0 
67.3961 -23.9414 0 67.4428 -23.9138 0 67.4894 -23.8862 0 
67.5359 -23.8585 0 67.5823 -23.8308 0 67.6287 -23.8031 0 
67.675 -23.7753 0 67.7213 -23.7475 0 67.7674 -23.7198 0 
67.8134 -23.692 0 67.8594 -23.6642 0 67.9054 -23.6364 0 
67.9512 -23.6085 0 67.997 -23.5807 0 68.0427 -23.5528 0 
68.0884 -23.5249 0 68.134 -23.497 0 68.1794 -23.469 0 
68.2248 -23.441 0 68.2702 -23.413 0 68.3154 -23.3851 0 
68.3607 -23.3571 0 68.4058 -23.3291 0 68.4508 -23.301 0 
68.4959 -23.273 0 68.5407 -23.2449 0 68.5856 -23.2169 0 
68.6305 -23.1886 0 68.6751 -23.1605 0 68.7198 -23.1324 0 
68.7643 -23.1043 0 68.8089 -23.0761 0 68.8532 -23.0479 0 
68.8975 -23.0198 0 68.9418 -22.9916 0 68.9861 -22.9633 0 
69.0302 -22.9351 0 69.0743 -22.9069 0 69.1183 -22.8785 0 
69.1622 -22.8502 0 69.2061 -22.8219 0 69.2499 -22.7936 0 
69.2935 -22.7653 0 69.3372 -22.737 0 69.3808 -22.7086 0 
69.4243 -22.6803 0 69.4677 -22.6519 0 69.5111 -22.6235 0 
[...]
POINT_DATA 5000
VECTORS velocity double
15.3717 -10.0722 0 15.4861 -9.38243 0 15.5544 -9.08984 0 
15.6127 -8.86557 0 15.6645 -8.67793 0 15.7114 -8.51452 0 
15.7543 -8.36896 0 15.7937 -8.23726 0 15.8301 -8.11691 0 
15.8636 -8.00613 0 15.8945 -7.90357 0 15.9231 -7.8082 0 
15.9493 -7.7192 0 15.9735 -7.63596 0 15.9956 -7.55788 0 
16.0159 -7.48454 0 16.0343 -7.4156 0 16.051 -7.35063 0 
16.066 -7.28937 0 16.0795 -7.23159 0 16.0914 -7.17704 0 
16.1019 -7.12553 0 16.111 -7.07686 0 16.1188 -7.03089 0 
16.1253 -6.98745 0 16.1305 -6.94641 0 16.1345 -6.90768 0 
16.1374 -6.87107 0 16.1391 -6.83652 0 16.1398 -6.8039 0 
16.1394 -6.77315 0 16.1381 -6.74418 0 16.1358 -6.71688 0 
16.1325 -6.69121 0 16.1284 -6.66707 0 16.1233 -6.64442 0 
16.1175 -6.62319 0 16.1108 -6.60332 0 16.1034 -6.58473 0 
16.0951 -6.56739 0 16.0862 -6.55124 0 16.0765 -6.53624 0 
16.0662 -6.52234 0 16.0552 -6.50951 0 16.0436 -6.49768 0 
16.0313 -6.48684 0 16.0185 -6.47693 0 16.0051 -6.46795 0 
15.9911 -6.45982 0 15.9766 -6.45253 0 15.9615 -6.44605 0 
15.946 -6.44034 0 15.9299 -6.43538 0 15.9134 -6.43114 0 
15.8965 -6.42759 0 15.8791 -6.42472 0 15.8613 -6.42249 0 
15.843 -6.42088 0 15.8244 -6.41989 0 15.8054 -6.41945 0 
15.7861 -6.41957 0 15.7664 -6.42023 0 15.7463 -6.42141 0 
15.7259 -6.42309 0 15.7052 -6.42524 0 15.6842 -6.42786 0 
15.6629 -6.43093 0 15.6413 -6.43443 0 15.6194 -6.43836 0 
15.5973 -6.44267 0 15.5749 -6.44737 0 15.5523 -6.45245 0 
15.5294 -6.45788 0 15.5063 -6.46366 0 15.483 -6.46978 0 
15.4595 -6.47621 0 15.4358 -6.48295 0 15.4119 -6.48999 0 
15.3878 -6.49732 0 15.3635 -6.50494 0 15.3391 -6.51282 0 
15.3145 -6.52095 0 15.2897 -6.52933 0 15.2648 -6.53794 0 
15.2398 -6.54678 0 15.2146 -6.55584 0 15.1893 -6.56512 0 
15.1638 -6.57459 0 15.1383 -6.58427 0 15.1126 -6.59414 0 
15.0869 -6.60418 0 15.061 -6.61439 0 15.035 -6.62477 0 
15.009 -6.63531 0 14.9829 -6.646 0 14.9567 -6.65684 0 
14.9304 -6.66782 0 14.904 -6.67892 0 14.8776 -6.69016 0 
14.8511 -6.70153 0 14.8246 -6.71301 0 14.798 -6.72459 0 
14.7714 -6.73629 0 14.7447 -6.74808 0 14.718 -6.75997 0 
14.6912 -6.77195 0 14.6644 -6.78403 0 14.6376 -6.79617 0 
14.6108 -6.8084 0 14.5839 -6.82071 0 14.557 -6.83308 0 
14.5301 -6.84552 0 14.5032 -6.85801 0 14.4763 -6.87057 0 
14.4493 -6.88318 0 14.4224 -6.89584 0 14.3955 -6.90855 0 
14.3685 -6.9213 0 14.3416 -6.93409 0 14.3147 -6.94692 0 
14.2878 -6.95978 0 14.2609 -6.97267 0 14.234 -6.9856 0 
14.2071 -6.99854 0 14.1803 -7.0115 0 14.1534 -7.02449 0 
14.1266 -7.0375 0 14.0998 -7.05051 0 14.0731 -7.06354 0 
14.0464 -7.07658 0 14.0197 -7.08962 0 13.993 -7.10268 0 
13.9664 -7.11573 0 13.9398 -7.12878 0 13.9132 -7.14184 0 
13.8867 -7.15489 0 13.8603 -7.16792 0 13.8338 -7.18095 0 
13.8075 -7.19397 0 13.7811 -7.20698 0 13.7548 -7.21998 0 
13.7286 -7.23296 0 13.7024 -7.24593 0 13.6763 -7.25887 0 
13.6502 -7.2718 0 13.6242 -7.2847 0 13.5982 -7.29758 0 
13.5723 -7.31044 0 13.5465 -7.32326 0 13.5207 -7.33606 0 
13.4949 -7.34883 0 13.4693 -7.36157 0 13.4437 -7.37427 0 
13.4181 -7.38696 0 13.3927 -7.39959 0 13.3673 -7.4122 0 
13.3419 -7.42476 0 13.3166 -7.43729 0 13.2914 -7.44978 0 
13.2663 -7.46223 0 13.2412 -7.47464 0 13.2162 -7.48701 0 
13.1913 -7.49933 0 13.1665 -7.5116 0 13.1417 -7.52384 0 
13.117 -7.53602 0 13.0924 -7.54816 0 13.0678 -7.56026 0 
13.0433 -7.5723 0 13.0189 -7.58429 0 12.9946 -7.59623 0 
12.9704 -7.60813 0 12.9462 -7.61996 0 12.9222 -7.63174 0 
12.8982 -7.64348 0 12.8742 -7.65516 0 12.8504 -7.66679 0 
12.8266 -7.67836 0 12.8029 -7.68987 0 12.7794 -7.70132 0 
12.7558 -7.71272 0 12.7324 -7.72406 0 12.7091 -7.73533 0 
12.6858 -7.74656 0 12.6627 -7.75772 0 12.6396 -7.76883 0 
12.6166 -7.77986 0 12.5937 -7.79084 0 12.5708 -7.80176 0 
12.5481 -7.81262 0 12.5254 -7.82341 0 12.5029 -7.83414 0 
12.4804 -7.8448 0 12.458 -7.85541 0 12.4357 -7.86594 0 
12.4135 -7.87641 0 12.3914 -7.88683 0 12.3694 -7.89717 0 
12.3474 -7.90744 0 12.3255 -7.91766 0 12.3038 -7.9278 0 
12.2821 -7.93788 0 12.2605 -7.94789 0 12.239 -7.95783 0 
12.2176 -7.96771 0 12.1963 -7.97752 0 12.1751 -7.98725 0 
12.154 -7.99692 0 12.1329 -8.00652 0 12.112 -8.01606 0 
12.0911 -8.02552 0 12.0703 -8.03492 0 12.0497 -8.04424 0 
12.0291 -8.0535 0 12.0086 -8.06267 0 11.9882 -8.07179 0 
11.9679 -8.08084 0 11.9477 -8.0898 0 11.9276 -8.0987 0 
11.9076 -8.10754 0 11.8876 -8.1163 0 11.8678 -8.12499 0 
11.848 -8.13361 0 11.8284 -8.14216 0 11.8088 -8.15062 0 
11.7894 -8.15902 0 11.77 -8.16736 0 11.7507 -8.17562 0 
11.7315 -8.18381 0 11.7124 -8.19193 0 11.6934 -8.19997 0 
11.6745 -8.20794 0 11.6556 -8.21584 0 11.6369 -8.22367 0 
11.6183 -8.23142 0 11.5998 -8.23909 0 11.5813 -8.2467 0 
11.563 -8.25424 0 11.5447 -8.2617 0 11.5265 -8.26909 0 
11.5085 -8.2764 0 11.4905 -8.28365 0 11.4726 -8.29083 0 
11.4548 -8.29792 0 11.437 -8.30495 0 11.4195 -8.31189 0 
11.402 -8.31877 0 11.3845 -8.32558 0 11.3672 -8.33232 0 
11.3499 -8.33899 0 11.3328 -8.34557 0 11.3157 -8.35209 0 
11.2988 -8.35853 0 11.2819 -8.36491 0 11.2651 -8.3712 0 
11.2484 -8.37743 0 11.2318 -8.38358 0 11.2153 -8.38966 0 
11.1989 -8.39567 0 11.1825 -8.4016 0 11.1663 -8.40746 0 
11.1502 -8.41325 0 11.1341 -8.41897 0 11.1181 -8.42462 0 
11.1022 -8.4302 0 11.0865 -8.43569 0 11.0708 -8.44111 0 
11.0552 -8.44647 0 11.0397 -8.45176 0 11.0243 -8.45697 0 
11.0089 -8.46212 0 10.9937 -8.46718 0 10.9786 -8.47218 0 
10.9635 -8.47712 0 10.9485 -8.48197 0 10.9336 -8.48675 0 
10.9188 -8.49146 0 10.9041 -8.4961 0 10.8895 -8.50066 0 
10.875 -8.50517 0 10.8605 -8.5096 0 10.8462 -8.51396 0 
10.8319 -8.51824 0 10.8177 -8.52246 0 10.8037 -8.52661 0 
10.7896 -8.53069 0 10.7757 -8.53469 0 10.762 -8.53861 0 
10.7482 -8.54249 0 10.7346 -8.54628 0 10.721 -8.55001 0 
10.7075 -8.55366 0 10.6941 -8.55725 0 10.6808 -8.56078 0 
10.6676 -8.56423 0 10.6545 -8.5676 0 10.6414 -8.57092 0 
10.6285 -8.57415 0 10.6156 -8.57733 0 10.6028 -8.58043 0 
10.5901 -8.58347 0 10.5775 -8.58644 0 10.5649 -8.58935 0 
10.5525 -8.59218 0 10.5401 -8.59494 0 10.5278 -8.59764 0 
10.5156 -8.60028 0 10.5035 -8.60284 0 10.4915 -8.60533 0 
10.4796 -8.60776 0 10.4677 -8.61013 0 10.4559 -8.61242 0 
10.4442 -8.61466 0 10.4326 -8.61682 0 10.421 -8.61893 0 
10.4096 -8.62096 0 10.3982 -8.62292 0 10.3869 -8.62483 0 
10.3757 -8.62665 0 10.3646 -8.62842 0 10.3535 -8.63013 0 
10.3426 -8.63177 0 10.3317 -8.63335 0 10.3209 -8.63486 0 
10.3101 -8.63631 0 10.2995 -8.6377 0 10.2889 -8.63902 0 
10.2784 -8.64028 0 10.2681 -8.64146 0 10.2578 -8.64259 0 
10.2475 -8.64366 0 10.2373 -8.64466 0 10.2272 -8.64561 0 
10.2172 -8.64648 0 10.2073 -8.6473 0 10.1974 -8.64806 0 
10.1876 -8.64875 0 10.1779 -8.64938 0 10.1682 -8.64995 0 
10.1587 -8.65045 0 10.1493 -8.65089 0 10.1399 -8.65128 0 
10.1305 -8.6516 0 10.1213 -8.65187 0 10.1121 -8.65207 0 
10.103 -8.65222 0 10.094 -8.65231 0 10.085 -8.65233 0 
10.0762 -8.65229 0 10.0674 -8.65218 0 10.0587 -8.65203 0 
10.05 -8.65182 0 10.0414 -8.65155 0 10.0329 -8.65122 0 
10.0245 -8.65083 0 10.0161 -8.65038 0 10.0078 -8.64988 0 
9.99964 -8.64932 0 9.99148 -8.6487 0 9.98342 -8.64802 0 
9.97546 -8.64727 0 9.96754 -8.64648 0 9.95967 -8.64564 0 
9.9519 -8.64473 0 9.94418 -8.64377 0 9.93651 -8.64276 0 
9.92893 -8.64169 0 9.92144 -8.64056 0 9.91401 -8.63938 0 
9.90662 -8.63814 0 9.89939 -8.63683 0 9.89215 -8.63549 0 
9.885 -8.63409 0 9.87791 -8.63263 0 9.8709 -8.63112 0 
9.86394 -8.62956 0 9.85705 -8.62794 0 9.85023 -8.62627 0 
9.84348 -8.62455 0 9.83677 -8.62278 0 9.83016 -8.62095 0 
9.82368 -8.61904 0 9.81717 -8.61712 0 9.81075 -8.61513 0 
9.80441 -8.61309 0 9.79813 -8.611 0 9.7919 -8.60886 0 
9.78573 -8.60667 0 9.77964 -8.60443 0 9.7736 -8.60214 0 
9.76765 -8.5998 0 9.7618 -8.59738 0 9.75596 -8.59494 0 
9.75017 -8.59245 0 9.74446 -8.58991 0 9.73883 -8.58731 0 
9.73323 -8.58468 0 9.72771 -8.58199 0 9.72225 -8.57925 0 
9.71687 -8.57646 0 9.7115 -8.57363 0 9.70628 -8.57073 0 
9.70108 -8.56779 0 9.69591 -8.56482 0 9.69082 -8.5618 0 
9.6858 -8.55872 0 9.68082 -8.5556 0 9.67591 -8.55244 0 
9.67105 -8.54923 0 9.66625 -8.54597 0 9.66154 -8.54267 0 
9.65686 -8.53932 0 9.6523 -8.5359 0 9.64773 -8.53246 0 
9.64323 -8.52898 0 9.6388 -8.52545 0 9.63441 -8.52188 0 
9.63007 -8.51826 0 9.62581 -8.5146 0 9.62157 -8.51089 0 
9.61742 -8.50714 0 9.61334 -8.50335 0 9.60933 -8.4995 0 
9.60535 -8.49562 0 9.60142 -8.4917 0 9.59754 -8.48773 0 
9.59371 -8.48373 0 9.58995 -8.47968 0 9.58625 -8.47559 0 
9.58256 -8.47146 0 9.57898 -8.46729 0 9.57542 -8.46308 0 
9.57191 -8.45883 0 9.56852 -8.45451 0 9.56513 -8.45018 0 
9.5618 -8.4458 0 9.55851 -8.44139 0 9.55528 -8.43693 0 
9.55209 -8.43244 0 9.54897 -8.42791 0 9.54589 -8.42333 0 
9.54286 -8.41872 0 9.53988 -8.41408 0 9.53703 -8.40937 0 
9.53415 -8.40464 0 9.53133 -8.39988 0 9.52856 -8.39508 0 
9.5258 -8.39024 0 9.52315 -8.38537 0 9.52052 -8.38046 0 
9.51794 -8.37551 0 9.51543 -8.37052 0 9.51293 -8.3655 0 
9.51056 -8.36042 0 9.50818 -8.35533 0 9.50585 -8.3502 0 
9.50356 -8.34504 0 9.50131 -8.33984 0 9.49911 -8.3346 0 
9.49698 -8.32934 0 9.49487 -8.32403 0 9.49282 -8.3187 0 
9.49083 -8.31333 0 9.48885 -8.30792 0 9.48699 -8.30246 0 
9.48511 -8.29699 0 9.48329 -8.29149 0 9.48151 -8.28595 0 
9.4798 -8.28038 0 9.47809 -8.27478 0 9.47644 -8.26914 0 
9.47485 -8.26348 0 9.47328 -8.25778 0 9.47177 -8.25205 0 
9.47037 -8.24627 0 9.46891 -8.24047 0 9.46753 -8.23465 0 
9.46619 -8.2288 0 9.4649 -8.22292 0 9.46363 -8.217 0 
9.46242 -8.21106 0 9.46124 -8.20508 0 9.46011 -8.19908 0 
9.45901 -8.19305 0 9.45795 -8.18699 0 9.45701 -8.18088 0 
9.45604 -8.17476 0 9.4551 -8.16861 0 9.45422 -8.16243 0 
9.45336 -8.15623 0 9.45254 -8.15 0 9.45179 -8.14374 0 
9.45104 -8.13745 0 9.45036 -8.13114 0 9.4497 -8.1248 0 
9.44911 -8.11841 0 9.44855 -8.11201 0 9.44799 -8.10559 0 
9.4475 -8.09914 0 9.44702 -8.09267 0 9.44661 -8.08618 0 
9.44623 -8.07965 0 9.44586 -8.0731 0 9.44553 -8.06653 0 
9.44526 -8.05993 0 9.44499 -8.05331 0 9.44486 -8.04664 0 
9.44467 -8.03996 0 9.44454 -8.03327 0 9.44443 -8.02655 0 
9.44437 -8.01981 0 9.44432 -8.01304 0 9.44432 -8.00625 0 
9.44437 -7.99944 0 9.44443 -7.9926 0 9.44453 -7.98574 0 
9.44474 -7.97884 0 9.4449 -7.97193 0 9.4451 -7.96501 0 
9.44533 -7.95806 0 9.4456 -7.95109 0 9.4459 -7.94411 0 
9.44623 -7.93709 0 9.4466 -7.93006 0 9.447 -7.92301 0 
9.44743 -7.91594 0 9.44796 -7.90882 0 9.44845 -7.90171 0 
9.44896 -7.89457 0 9.44953 -7.88742 0 9.45012 -7.88024 0 
9.45073 -7.87305 0 9.45139 -7.86584 0 9.45206 -7.85861 0 
9.45275 -7.85136 0 9.4535 -7.84409 0 9.45427 -7.8368 0 
9.45512 -7.82947 0 9.45595 -7.82214 0 9.45679 -7.8148 0 
9.45769 -7.80745 0 9.45857 -7.80007 0 9.45952 -7.79267 0 
9.4605 -7.78526 0 9.46148 -7.77783 0 9.46252 -7.77039 0 
9.46356 -7.76293 0 9.46469 -7.75542 0 9.46582 -7.74793 0 
9.46695 -7.74042 0 9.46811 -7.73289 0 9.4693 -7.72535 0 
9.47049 -7.71779 0 9.47174 -7.71022 0 9.47301 -7.70264 0 
9.4743 -7.69503 0 9.4756 -7.68741 0 9.47701 -7.67976 0 
9.47839 -7.67211 0 9.47977 -7.66444 0 9.48119 -7.65677 0 
9.48264 -7.64908 0 9.48409 -7.64138 0 9.4856 -7.63366 0 
9.48711 -7.62593 0 9.48866 -7.61819 0 9.49023 -7.61043 0 
9.49181 -7.60266 0 9.49347 -7.59485 0 9.49512 -7.58706 0 
9.49675 -7.57925 0 9.49845 -7.57143 0 9.50014 -7.5636 0 
9.50186 -7.55576 0 9.50363 -7.54791 0 9.5054 -7.54004 0 
9.50717 -7.53216 0 9.509 -7.52427 0 9.5109 -7.51635 0 
9.51275 -7.50843 0 9.51462 -7.50051 0 9.51651 -7.49258 0 
9.51844 -7.48463 0 9.52039 -7.47668 0 9.52236 -7.46872 0 
9.52433 -7.46075 0 9.52636 -7.45277 0 9.52838 -7.44477 0 
9.53043 -7.43677 0 9.53255 -7.42874 0 9.53464 -7.42072 0 
9.53674 -7.41268 0 9.53885 -7.40464 0 9.54101 -7.3966 0 
9.54317 -7.38854 0 9.54536 -7.38048 0 9.54754 -7.3724 0 
9.54978 -7.36432 0 9.552 -7.35623 0 9.55431 -7.34811 0 
9.55659 -7.34001 0 9.55889 -7.3319 0 9.56121 -7.32378 0 
9.56353 -7.31565 0 9.56589 -7.30753 0 9.56825 -7.29939 0 
9.57064 -7.29124 0 9.57304 -7.28309 0 9.57544 -7.27492 0 
9.57788 -7.26676 0 9.58039 -7.25856 0 9.58284 -7.25038 0 
9.58534 -7.2422 0 9.58784 -7.23401 0 9.59035 -7.22581 0 
9.59287 -7.21761 0 9.59543 -7.2094 0 9.59799 -7.20119 0 
9.60058 -7.19298 0 9.60317 -7.18475 0 9.60583 -7.1765 0 
9.60845 -7.16827 0 9.6111 -7.16004 0 9.61377 -7.1518 0 
9.61643 -7.14355 0 9.61911 -7.1353 0 9.62181 -7.12705 0 
9.62454 -7.11879 0 9.62725 -7.11053 0 9.63002 -7.10227 0 
9.63278 -7.094 0 9.63561 -7.08571 0 9.63837 -7.07743 0 
9.64119 -7.06915 0 9.644 -7.06087 0 9.64682 -7.05259 0 
9.64967 -7.04431 0 9.65252 -7.03601 0 9.6554 -7.02772 0 
9.65828 -7.01943 0 9.66115 -7.01113 0 9.66412 -7.00281 0 
9.66703 -6.99451 0 9.66997 -6.98621 0 9.67292 -6.97791 0 
9.67585 -6.9696 0 9.67884 -6.96129 0 9.68181 -6.95298 0 
9.6848 -6.94467 0 9.68782 -6.93636 0 9.69081 -6.92805 0 
9.6939 -6.91971 0 9.69693 -6.91139 0 9.69999 -6.90308 0 
9.70306 -6.89477 0 9.70612 -6.88645 0 9.7092 -6.87813 0 
9.71231 -6.86982 0 9.71539 -6.8615 0 9.71853 -6.85319 0 
9.72166 -6.84487 0 9.72477 -6.83655 0 9.72798 -6.82821 0 
9.73114 -6.81989 0 9.7343 -6.81157 0 9.73749 -6.80326 0 
9.74069 -6.79495 0 9.74388 -6.78663 0 9.74709 -6.77832 0 
9.75031 -6.77001 0 9.75352 -6.76169 0 9.75676 -6.75338 0 
9.76006 -6.74505 0 9.76332 -6.73674 0 9.76658 -6.72844 0 
9.76985 -6.72013 0 9.77313 -6.71183 0 9.77644 -6.70353 0 
9.77973 -6.69523 0 9.78304 -6.68693 0 9.78636 -6.67863 0 
9.78967 -6.67034 0 9.79303 -6.66205 0 9.79643 -6.65374 0 
9.79976 -6.64545 0 9.80314 -6.63717 0 9.8065 -6.62889 0 
9.8099 -6.62061 0 9.81325 -6.61233 0 9.81667 -6.60406 0 
9.82007 -6.59579 0 9.82346 -6.58752 0 9.8269 -6.57926 0 
9.83036 -6.57097 0 9.8338 -6.56272 0 9.83722 -6.55446 0 
9.84068 -6.54621 0 9.84414 -6.53796 0 9.84758 -6.52972 0 
9.85107 -6.52148 0 9.85453 -6.51324 0 9.85803 -6.50501 0 
9.8615 -6.49678 0 9.86506 -6.48854 0 9.86857 -6.48032 0 
9.87206 -6.4721 0 9.87559 -6.46389 0 9.87911 -6.45568 0 
9.88262 -6.44747 0 9.88617 -6.43928 0 9.8897 -6.43109 0 
9.89325 -6.4229 0 9.89682 -6.41471 0 9.90038 -6.40653 0 
9.90399 -6.39834 0 9.90755 -6.39016 0 9.91114 -6.382 0 
9.91472 -6.37384 0 9.91829 -6.36568 0 9.9219 -6.35754 0 
9.9255 -6.3494 0 9.92912 -6.34126 0 9.93271 -6.33312 0 
9.93633 -6.32499 0 9.94 -6.31685 0 9.94365 -6.30874 0 
9.94727 -6.30063 0 9.95091 -6.29252 0 9.95456 -6.28443 0 
9.9582 -6.27633 0 9.96186 -6.26825 0 9.9655 -6.26016 0 
9.96918 -6.25209 0 9.97284 -6.24402 0 9.9765 -6.23596 0 
9.98024 -6.22788 0 9.98393 -6.21984 0 9.98762 -6.21179 0 
9.9913 -6.20376 0 9.995 -6.19573 0 9.99871 -6.1877 0 
10.0024 -6.17969 0 10.0061 -6.17167 0 10.0098 -6.16368 0 
10.0135 -6.15568 0 10.0173 -6.14768 0 10.021 -6.13969 0 
10.0248 -6.13172 0 10.0285 -6.12375 0 10.0323 -6.11579 0 
10.036 -6.10784 0 10.0397 -6.09989 0 10.0435 -6.09195 0 
10.0472 -6.08402 0 10.051 -6.0761 0 10.0548 -6.06816 0 
10.0586 -6.06026 0 10.0624 -6.05235 0 10.0661 -6.04447 0 
10.0699 -6.03658 0 10.0737 -6.0287 0 10.0775 -6.02083 0 
10.0812 -6.01297 0 10.085 -6.00511 0 10.0888 -5.99727 0 
10.0926 -5.98943 0 10.0965 -5.98158 0 10.1003 -5.97376 0 
10.1041 -5.96594 0 10.1079 -5.95814 0 10.1117 -5.95035 0 
10.1155 -5.94256 0 10.1194 -5.93478 0 10.1232 -5.927 0 
10.127 -5.91924 0 10.1308 -5.91148 0 10.1347 -5.90372 0 
10.1385 -5.89598 0 10.1424 -5.88826 0 10.1462 -5.88053 0 
10.1501 -5.87282 0 10.1539 -5.86512 0 10.1577 -5.85742 0 
10.1616 -5.84974 0 10.1655 -5.84206 0 10.1693 -5.83439 0 
10.1732 -5.82674 0 10.1771 -5.81907 0 10.1809 -5.81143 0 
10.1848 -5.8038 0 10.1887 -5.79617 0 10.1925 -5.78856 0 
10.1964 -5.78096 0 10.2003 -5.77337 0 10.2042 -5.76578 0 
10.208 -5.7582 0 10.2119 -5.75064 0 10.2159 -5.74306 0 
10.2198 -5.73551 0 10.2236 -5.72797 0 10.2275 -5.72044 0 
10.2314 -5.71293 0 10.2353 -5.70542 0 10.2392 -5.69791 0 
10.2431 -5.69043 0 10.247 -5.68295 0 10.2509 -5.67547 0 
10.2549 -5.668 0 10.2588 -5.66054 0 10.2627 -5.6531 0 
10.2666 -5.64567 0 10.2706 -5.63825 0 10.2745 -5.63083 0 
10.2784 -5.62343 0 10.2823 -5.61604 0 10.2862 -5.60866 0 
10.2901 -5.60129 0 10.2941 -5.59392 0 10.298 -5.58655 0 
10.302 -5.57921 0 10.3059 -5.57187 0 10.3098 -5.56455 0 
10.3138 -5.55724 0 10.3177 -5.54994 0 10.3217 -5.54265 0 
10.3256 -5.53536 0 10.3295 -5.52809 0 10.3335 -5.52084 0 
10.3375 -5.51356 0 10.3414 -5.50632 0 10.3454 -5.4991 0 
10.3493 -5.49188 0 10.3533 -5.48466 0 10.3572 -5.47747 0 
10.3612 -5.47028 0 10.3652 -5.4631 0 10.3691 -5.45593 0 
10.3731 -5.44877 0 10.3771 -5.44163 0 10.381 -5.43449 0 
10.385 -5.42736 0 10.389 -5.42024 0 10.3929 -5.41314 0 
10.3969 -5.40605 0 10.4009 -5.39896 0 10.4049 -5.39189 0 
10.4088 -5.38482 0 10.4128 -5.37777 0 10.4168 -5.37074 0 
10.4208 -5.36371 0 10.4248 -5.35668 0 10.4288 -5.34968 0 
10.4328 -5.34268 0 10.4367 -5.33569 0 10.4407 -5.32871 0 
10.4447 -5.32175 0 10.4487 -5.3148 0 10.4527 -5.30785 0 
10.4567 -5.30092 0 10.4607 -5.294 0 10.4647 -5.28709 0 
10.4687 -5.28019 0 10.4727 -5.2733 0 10.4767 -5.26643 0 
10.4807 -5.25956 0 10.4847 -5.2527 0 10.4887 -5.24585 0 
10.4927 -5.23902 0 10.4968 -5.2322 0 10.5008 -5.22539 0 
10.5048 -5.21858 0 10.5088 -5.2118 0 10.5128 -5.20502 0 
10.5169 -5.19826 0 10.5209 -5.1915 0 10.5249 -5.18475 0 
10.5289 -5.17802 0 10.5329 -5.1713 0 10.5369 -5.16458 0 
10.541 -5.15789 0 10.545 -5.1512 0 10.549 -5.14452 0 
10.5531 -5.13786 0 10.5571 -5.1312 0 10.5611 -5.12456 0 
10.5652 -5.11792 0 10.5692 -5.1113 0 10.5732 -5.10469 0 
10.5773 -5.09809 0 10.5813 -5.09151 0 10.5854 -5.08493 0 
10.5894 -5.07837 0 10.5935 -5.07182 0 10.5975 -5.06527 0 
10.6015 -5.05874 0 10.6056 -5.05222 0 10.6097 -5.04572 0 
10.6137 -5.03922 0 10.6177 -5.03273 0 10.6218 -5.02626 0 
10.6259 -5.0198 0 10.6299 -5.01335 0 10.634 -5.0069 0 
10.638 -5.00048 0 10.6421 -4.99406 0 10.6462 -4.98765 0 
10.6502 -4.98126 0 10.6543 -4.97488 0 10.6584 -4.9685 0 
10.6624 -4.96214 0 10.6665 -4.95579 0 10.6706 -4.94946 0 
10.6747 -4.94314 0 10.6787 -4.93682 0 10.6828 -4.93052 0 
10.6869 -4.92423 0 10.691 -4.91795 0 10.695 -4.91168 0 
10.6991 -4.90543 0 10.7032 -4.89918 0 10.7073 -4.89294 0 
10.7114 -4.88672 0 10.7155 -4.88051 0 10.7196 -4.87431 0 
10.7237 -4.86812 0 10.7277 -4.86194 0 10.7319 -4.85578 0 
10.736 -4.84963 0 10.74 -4.84348 0 10.7442 -4.83735 0 
10.7483 -4.83124 0 10.7524 -4.82512 0 10.7565 -4.81903 0 
10.7606 -4.81294 0 10.7647 -4.80688 0 10.7688 -4.80081 0 
10.7729 -4.79476 0 10.777 -4.78872 0 10.7812 -4.78269 0 
10.7853 -4.77667 0 10.7894 -4.77067 0 10.7935 -4.76468 0 
10.7976 -4.7587 0 10.8018 -4.75273 0 10.8059 -4.74677 0 
10.81 -4.74082 0 10.8141 -4.73488 0 10.8183 -4.72896 0 
10.8224 -4.72305 0 10.8266 -4.71715 0 10.8307 -4.71126 0 
10.8349 -4.70538 0 10.839 -4.69951 0 10.8431 -4.69366 0 
10.8473 -4.68781 0 10.8514 -4.68198 0 10.8556 -4.67616 0 
10.8597 -4.67035 0 10.8639 -4.66455 0 10.8681 -4.65877 0 
10.8722 -4.65299 0 10.8764 -4.64723 0 10.8805 -4.64147 0 
10.8847 -4.63573 0 10.8889 -4.63 0 10.893 -4.62428 0 
10.8972 -4.61857 0 10.9014 -4.61288 0 10.9056 -4.6072 0 
10.9097 -4.60152 0 10.9139 -4.59586 0 10.9181 -4.59021 0 
10.9223 -4.58457 0 10.9265 -4.57894 0 10.9307 -4.57333 0 
10.9349 -4.56773 0 10.9391 -4.56213 0 10.9433 -4.55655 0 
10.9475 -4.55098 0 10.9517 -4.54542 0 10.9559 -4.53987 0 
10.9601 -4.53434 0 10.9643 -4.52881 0 10.9685 -4.52329 0 
10.9727 -4.5178 0 10.9769 -4.5123 0 10.9811 -4.50682 0 
10.9853 -4.50135 0 10.9896 -4.49589 0 10.9938 -4.49045 0 
10.998 -4.48501 0 11.0022 -4.47958 0 11.0065 -4.47418 0 
11.0107 -4.46878 0 11.015 -4.46339 0 11.0192 -4.458 0 
11.0235 -4.45264 0 11.0277 -4.44729 0 11.0319 -4.44194 0 
11.0362 -4.43661 0 11.0405 -4.43128 0 11.0447 -4.42597 0 
11.049 -4.42067 0 11.0532 -4.41538 0 11.0575 -4.4101 0 
11.0618 -4.40483 0 11.066 -4.39958 0 11.0703 -4.39434 0 
11.0746 -4.38911 0 11.0789 -4.38388 0 11.0832 -4.37867 0 
11.0875 -4.37347 0 11.0918 -4.36828 0 11.0961 -4.36311 0 
11.1003 -4.35794 0 11.1046 -4.35278 0 11.1089 -4.34764 0 
11.1132 -4.3425 0 11.1175 -4.33737 0 11.1219 -4.33227 0 
11.1262 -4.32716 0 11.1305 -4.32208 0 11.1348 -4.317 0 
11.1391 -4.31194 0 11.1435 -4.30688 0 11.1478 -4.30183 0 
11.1521 -4.29679 0 11.1565 -4.29177 0 11.1608 -4.28676 0 
11.1651 -4.28175 0 11.1695 -4.27677 0 11.1738 -4.27179 0 
11.1782 -4.26681 0 11.1825 -4.26185 0 11.1869 -4.25691 0 
11.1912 -4.25197 0 11.1956 -4.24705 0 11.2 -4.24213 0 
11.2044 -4.23723 0 11.2087 -4.23234 0 11.2131 -4.22745 0 
11.2175 -4.22258 0 11.2219 -4.21772 0 11.2263 -4.21287 0 