# vtk DataFile Version 3.0
vtk output
ASCII
DATASET POLYDATA
POINTS 5000 float
1.9859 -31.0234 0 5.26677 -30.9304 0 6.62864 -30.8794 0 
7.67397 -30.8356 0 8.55513 -30.7957 0 9.33116 -30.7582 0 
10.0324 -30.7225 0 10.6767 -30.6883 0 11.2761 -30.6553 0 
11.8385 -30.6232 0 12.37 -30.592 0 12.875 -30.5614 0 
13.3571 -30.5315 0 13.819 -30.5021 0 14.263 -30.4733 0 
14.6909 -30.4449 0 15.1043 -30.4168 0 15.5045 -30.3892 0 
15.8927 -30.362 0 16.2698 -30.335 0 16.6366 -30.3084 0 
16.994 -30.2821 0 17.3425 -30.2561 0 17.6827 -30.2302 0 
18.0153 -30.2047 0 18.3406 -30.1793 0 18.659 -30.1541 0 
18.9709 -30.1291 0 19.2767 -30.1044 0 19.5769 -30.0798 0 
19.8714 -30.0554 0 20.1606 -30.0312 0 20.445 -30.0071 0 
20.7245 -29.9832 0 20.9995 -29.9594 0 21.2701 -29.9357 0 
21.5365 -29.9122 0 21.799 -29.8887 0 22.0575 -29.8654 0 
22.3123 -29.8422 0 22.5636 -29.8191 0 22.8114 -29.7962 0 
23.0559 -29.7733 0 23.2972 -29.7505 0 23.5354 -29.7278 0 
23.7706 -29.7052 0 24.0029 -29.6827 0 24.2324 -29.6602 0 
24.4592 -29.6378 0 24.6832 -29.6156 0 24.9049 -29.5934 0 
25.1239 -29.5712 0 25.3407 -29.5491 0 25.5549 -29.5271 0 
25.767 -29.5052 0 25.9767 -29.4833 0 26.1844 -29.4615 0 
26.3899 -29.4397 0 26.5934 -29.4179 0 26.7949 -29.3962 0 
26.9944 -29.3746 0 27.1921 -29.353 0 27.3879 -29.3315 0 
27.5818 -29.31 0 27.774 -29.2885 0 27.9644 -29.2671 0 
28.1532 -29.2457 0 28.3403 -29.2244 0 28.5258 -29.203 0 
28.7096 -29.1817 0 28.892 -29.1605 0 29.0728 -29.1393 0 
29.2521 -29.1181 0 29.43 -29.0969 0 29.6064 -29.0758 0 
29.7814 -29.0547 0 29.9552 -29.0336 0 30.1274 -29.0125 0 
30.2984 -28.9915 0 30.4681 -28.9704 0 30.6365 -28.9494 0 
30.8038 -28.9284 0 30.9698 -28.9075 0 31.1345 -28.8865 0 
31.298 -28.8656 0 31.4605 -28.8447 0 31.6217 -28.8238 0 
31.7818 -28.8029 0 31.9409 -28.782 0 32.0988 -28.761 0 
32.2558 -28.7402 0 32.4116 -28.7193 0 32.5664 -28.6985 0 
32.7202 -28.6777 0 32.873 -28.6568 0 33.0248 -28.636 0 
33.1757 -28.6152 0 33.3255 -28.5944 0 33.4745 -28.5736 0 
33.6225 -28.5527 0 33.7697 -28.5319 0 33.9159 -28.5112 0 
34.0612 -28.4904 0 34.2057 -28.4696 0 34.3492 -28.4488 0 
34.4921 -28.428 0 34.634 -28.4072 0 34.7751 -28.3865 0 
34.9153 -28.3657 0 35.0549 -28.3449 0 35.1936 -28.324 0 
35.3315 -28.3032 0 35.4686 -28.2824 0 35.605 -28.2616 0 
35.7407 -28.2408 0 35.8757 -28.22 0 36.0099 -28.1992 0 
36.1434 -28.1784 0 36.2761 -28.1576 0 36.4082 -28.1368 0 
36.5396 -28.1159 0 36.6702 -28.095 0 36.8003 -28.0742 0 
36.9296 -28.0533 0 37.0583 -28.0325 0 37.1864 -28.0116 0 
37.3138 -27.9908 0 37.4405 -27.9699 0 37.5666 -27.949 0 
37.6922 -27.9281 0 37.8171 -27.9072 0 37.9414 -27.8862 0 
38.0651 -27.8653 0 38.1882 -27.8443 0 38.3108 -27.8234 0 
38.4328 -27.8024 0 38.5541 -27.7815 0 38.6749 -27.7605 0 
38.7951 -27.7395 0 38.9148 -27.7185 0 39.034 -27.6975 0 
39.1526 -27.6764 0 39.2707 -27.6554 0 39.3883 -27.6343 0 
39.5053 -27.6133 0 39.6218 -27.5922 0 39.7378 -27.5711 0 
39.8533 -27.55 0 39.9683 -27.5289 0 40.0828 -27.5078 0 
40.1967 -27.4867 0 40.3103 -27.4654 0 40.4232 -27.4443 0 
40.5359 -27.4231 0 40.6479 -27.4019 0 40.7595 -27.3807 0 
40.8706 -27.3595 0 40.9813 -27.3383 0 41.0915 -27.317 0 
41.2013 -27.2958 0 41.3107 -27.2745 0 41.4196 -27.2532 0 
41.5281 -27.2318 0 41.6361 -27.2105 0 41.7436 -27.1892 0 
41.8508 -27.1678 0 41.9575 -27.1465 0 42.0639 -27.1251 0 
42.1698 -27.1037 0 42.2753 -27.0823 0 42.3804 -27.0609 0 
42.4851 -27.0394 0 42.5894 -27.0179 0 42.6932 -26.9964 0 
42.7968 -26.9749 0 42.8999 -26.9534 0 43.0026 -26.9319 0 
43.105 -26.9104 0 43.2069 -26.8888 0 43.3085 -26.8673 0 
43.4097 -26.8457 0 43.5106 -26.8241 0 43.611 -26.8025 0 
43.7112 -26.7807 0 43.8109 -26.7591 0 43.9104 -26.7374 0 
44.0093 -26.7157 0 44.1081 -26.694 0 44.2065 -26.6723 0 
44.3044 -26.6506 0 44.4021 -26.6289 0 44.4994 -26.6071 0 
44.5964 -26.5853 0 44.693 -26.5634 0 44.7893 -26.5416 0 
44.8853 -26.5198 0 44.981 -26.4979 0 45.0763 -26.4761 0 
45.1713 -26.4542 0 45.266 -26.4323 0 45.3603 -26.4104 0 
45.4545 -26.3884 0 45.5482 -26.3665 0 45.6416 -26.3445 0 
45.7348 -26.3225 0 45.8276 -26.3005 0 45.9201 -26.2784 0 
46.0123 -26.2564 0 46.1042 -26.2344 0 46.1959 -26.2123 0 
46.2871 -26.1902 0 46.3782 -26.1681 0 46.4689 -26.146 0 
46.5594 -26.1239 0 46.6495 -26.1016 0 46.7395 -26.0794 0 
46.8291 -26.0573 0 46.9183 -26.0351 0 47.0074 -26.0128 0 
47.0961 -25.9906 0 47.1847 -25.9684 0 47.2729 -25.9461 0 
47.3608 -25.9238 0 47.4485 -25.9015 0 47.5359 -25.8791 0 
47.623 -25.8568 0 47.7099 -25.8344 0 47.7966 -25.812 0 
47.8829 -25.7897 0 47.9691 -25.7673 0 48.0549 -25.7448 0 
48.1405 -25.7224 0 48.2258 -25.7 0 48.3109 -25.6775 0 
48.3957 -25.655 0 48.4803 -25.6324 0 48.5647 -25.6099 0 
48.6488 -25.5874 0 48.7326 -25.5648 0 48.8162 -25.5422 0 
48.8995 -25.5197 0 48.9827 -25.4971 0 49.0656 -25.4744 0 
49.1482 -25.4518 0 49.2307 -25.4292 0 49.3128 -25.4064 0 
49.3947 -25.3837 0 49.4765 -25.361 0 49.558 -25.3383 0 
49.6393 -25.3156 0 49.7202 -25.2928 0 49.8011 -25.2701 0 
49.8816 -25.2473 0 49.962 -25.2245 0 50.0421 -25.2017 0 
50.1221 -25.1789 0 50.2018 -25.156 0 50.2813 -25.1331 0 
50.3605 -25.1102 0 50.4396 -25.0874 0 50.5184 -25.0645 0 
50.597 -25.0415 0 50.6754 -25.0186 0 50.7537 -24.9957 0 
50.8317 -24.9727 0 50.9095 -24.9497 0 50.987 -24.9266 0 
51.0644 -24.9036 0 51.1416 -24.8806 0 51.2185 -24.8576 0 
51.2953 -24.8345 0 51.3718 -24.8115 0 51.4482 -24.7884 0 
51.5244 -24.7653 0 51.6004 -24.7422 0 51.6761 -24.719 0 
51.7517 -24.6959 0 51.8271 -24.6726 0 51.9022 -24.6495 0 
51.9772 -24.6263 0 52.0521 -24.6031 0 52.1266 -24.5799 0 
52.201 -24.5566 0 52.2753 -24.5334 0 52.3493 -24.5101 0 
52.4232 -24.4869 0 52.4968 -24.4636 0 52.5703 -24.4402 0 
52.6436 -24.4169 0 52.7167 -24.3936 0 52.7897 -24.3702 0 
52.8624 -24.3469 0 52.935 -24.3235 0 53.0074 -24.3001 0 
53.0796 -24.2767 0 53.1515 -24.2533 0 53.2234 -24.2299 0 
53.2951 -24.2063 0 53.3667 -24.1829 0 53.438 -24.1594 0 
53.5091 -24.1359 0 53.5801 -24.1124 0 53.6509 -24.0889 0 
53.7215 -24.0654 0 53.7919 -24.0419 0 53.8622 -24.0184 0 
53.9324 -23.9948 0 54.0023 -23.9712 0 54.0721 -23.9475 0 
54.1418 -23.9239 0 54.2112 -23.9003 0 54.2805 -23.8767 0 
54.3496 -23.8531 0 54.4186 -23.8294 0 54.4874 -23.8058 0 
54.556 -23.7821 0 54.6245 -23.7584 0 54.6928 -23.7347 0 
54.7609 -23.7109 0 54.8289 -23.6872 0 54.8968 -23.6635 0 
54.9645 -23.6397 0 55.032 -23.6159 0 55.0993 -23.5922 0 
55.1665 -23.5684 0 55.2336 -23.5446 0 55.3004 -23.5208 0 
55.3672 -23.497 0 55.4338 -23.473 0 55.5002 -23.4492 0 
55.5665 -23.4253 0 55.6326 -23.4015 0 55.6987 -23.3776 0 
55.7644 -23.3537 0 55.8301 -23.3298 0 55.8957 -23.3059 0 
55.9611 -23.282 0 56.0263 -23.258 0 56.0914 -23.2341 0 
56.1563 -23.21 0 56.2211 -23.1861 0 56.2857 -23.1621 0 
56.3502 -23.1381 0 56.4146 -23.1141 0 56.4788 -23.0901 0 
56.5429 -23.0661 0 56.6068 -23.042 0 56.6706 -23.018 0 
56.7342 -22.9939 0 56.7977 -22.9698 0 56.8611 -22.9457 0 
56.9244 -22.9216 0 56.9874 -22.8975 0 57.0504 -22.8734 0 
57.1131 -22.8493 0 57.1758 -22.8252 0 57.2383 -22.801 0 
57.3007 -22.7769 0 57.3629 -22.7527 0 57.425 -22.7285 0 
57.4871 -22.7043 0 57.5489 -22.6801 0 57.6106 -22.6559 0 
57.6722 -22.6317 0 57.7336 -22.6075 0 57.795 -22.5832 0 
57.8562 -22.559 0 57.9172 -22.5347 0 57.9781 -22.5105 0 
58.0389 -22.4862 0 58.0995 -22.4618 0 58.1601 -22.4376 0 
58.2204 -22.4133 0 58.2807 -22.389 0 58.3408 -22.3647 0 
58.4008 -22.3403 0 58.4607 -22.316 0 58.5204 -22.2917 0 
58.5801 -22.2673 0 58.6396 -22.243 0 58.699 -22.2186 0 
58.7582 -22.1941 0 58.8173 -22.1697 0 58.8763 -22.1453 0 
58.9351 -22.1209 0 58.9939 -22.0965 0 59.0525 -22.0721 0 
59.111 -22.0477 0 59.1694 -22.0232 0 59.2277 -21.9988 0 
59.2858 -21.9743 0 59.3438 -21.9498 0 59.4017 -21.9253 0 
59.4595 -21.9008 0 59.5171 -21.8764 0 59.5746 -21.8519 0 
59.632 -21.8274 0 59.6893 -21.8029 0 59.7464 -21.7783 0 
59.8034 -21.7538 0 59.8604 -21.7293 0 59.9173 -21.7046 0 
59.9739 -21.6801 0 60.0305 -21.6555 0 60.087 -21.631 0 
60.1432 -21.6064 0 60.1995 -21.5818 0 60.2556 -21.5572 0 
60.3116 -21.5326 0 60.3675 -21.508 0 60.4232 -21.4834 0 
60.4788 -21.4588 0 60.5344 -21.4341 0 60.5898 -21.4095 0 
60.6451 -21.3848 0 60.7003 -21.3602 0 60.7554 -21.3355 0 
60.8104 -21.3109 0 60.8652 -21.2862 0 60.92 -21.2615 0 
60.9746 -21.2368 0 61.0291 -21.2122 0 61.0835 -21.1874 0 
61.1378 -21.1627 0 61.192 -21.138 0 61.2461 -21.1132 0 
61.3001 -21.0885 0 61.3539 -21.0638 0 61.4076 -21.0391 0 
61.4613 -21.0143 0 61.5148 -20.9896 0 61.5682 -20.9648 0 
61.6216 -20.9401 0 61.6748 -20.9152 0 61.7279 -20.8904 0 
61.7809 -20.8657 0 61.8338 -20.8409 0 61.8865 -20.8161 0 
61.9392 -20.7913 0 61.9918 -20.7665 0 62.0442 -20.7417 0 
62.0966 -20.7169 0 62.1488 -20.6921 0 62.2009 -20.6671 0 
62.253 -20.6423 0 62.3049 -20.6175 0 62.3567 -20.5926 0 
62.4086 -20.5678 0 62.4601 -20.5429 0 62.5117 -20.5181 0 
62.5631 -20.4932 0 62.6144 -20.4683 0 62.6656 -20.4435 0 
62.7167 -20.4185 0 62.7677 -20.3936 0 62.8186 -20.3687 0 
62.8695 -20.3438 0 62.9202 -20.3189 0 62.9708 -20.294 0 
63.0213 -20.2691 0 63.0717 -20.2442 0 63.122 -20.2193 0 
63.1722 -20.1943 0 63.2223 -20.1694 0 63.2723 -20.1444 0 
63.3222 -20.1194 0 63.3721 -20.0945 0 63.4218 -20.0695 0 
63.4713 -20.0446 0 63.5209 -20.0196 0 63.5703 -19.9947 0 
63.6196 -19.9697 0 63.6688 -19.9447 0 63.7179 -19.9198 0 
63.7669 -19.8947 0 63.8159 -19.8697 0 63.8647 -19.8447 0 
63.9135 -19.8197 0 63.9621 -19.7947 0 64.0106 -19.7697 0 
64.0591 -19.7447 0 64.1074 -19.7197 0 64.1557 -19.6947 0 
64.2039 -19.6696 0 64.252 -19.6446 0 64.2999 -19.6195 0 
64.3478 -19.5944 0 64.3956 -19.5694 0 64.4432 -19.5444 0 
64.4908 -19.5193 0 64.5384 -19.4943 0 64.5857 -19.4692 0 
64.6331 -19.4442 0 64.6802 -19.4191 0 64.7274 -19.394 0 
64.7745 -19.3689 0 64.8214 -19.3438 0 64.8683 -19.3187 0 
64.915 -19.2936 0 64.9617 -19.2686 0 65.0083 -19.2435 0 
65.0547 -19.2184 0 65.1011 -19.1933 0 65.1475 -19.1682 0 
65.1936 -19.1431 0 65.2398 -19.118 0 65.2858 -19.0928 0 
65.3318 -19.0677 0 65.3776 -19.0426 0 65.4234 -19.0175 0 
65.469 -18.9923 0 65.5146 -18.9672 0 65.5602 -18.9421 0 
65.6055 -18.917 0 65.6508 -18.8918 0 65.6961 -18.8667 0 
[...]
POINT_DATA 5000
VECTORS velocity double
12.8004 -6.86229 0 13.266 -6.38952 0 13.4849 -6.20212 0 
13.6596 -6.06361 0 13.8101 -5.95118 0 13.9441 -5.85589 0 
14.0656 -5.77314 0 14.1773 -5.70006 0 14.2808 -5.63484 0 
14.3773 -5.5762 0 14.4676 -5.52319 0 14.5524 -5.47506 0 
14.6324 -5.43123 0 14.7078 -5.39127 0 14.779 -5.35476 0 
14.8465 -5.3214 0 14.9104 -5.29096 0 14.9709 -5.26313 0 
15.0284 -5.23773 0 15.0829 -5.2146 0 15.1346 -5.19359 0 
15.1837 -5.17454 0 15.2303 -5.15734 0 15.2744 -5.14187 0 
15.3163 -5.12804 0 15.356 -5.11575 0 15.3936 -5.10494 0 
15.4292 -5.09549 0 15.4628 -5.08735 0 15.4946 -5.08044 0 
15.5246 -5.07472 0 15.5529 -5.07013 0 15.5795 -5.0666 0 
15.6045 -5.0641 0 15.6279 -5.06257 0 15.6498 -5.06198 0 
15.6703 -5.06228 0 15.6893 -5.06345 0 15.707 -5.06542 0 
15.7234 -5.06817 0 15.7385 -5.07167 0 15.7523 -5.07589 0 
15.7649 -5.0808 0 15.7763 -5.08637 0 15.7866 -5.09258 0 
15.7958 -5.09939 0 15.8039 -5.10679 0 15.811 -5.11478 0 
15.817 -5.12327 0 15.8221 -5.13229 0 15.8261 -5.14181 0 
15.8293 -5.15181 0 15.8315 -5.16227 0 15.8328 -5.17317 0 
15.8333 -5.1845 0 15.8329 -5.19623 0 15.8317 -5.20836 0 
15.8297 -5.22086 0 15.8269 -5.23375 0 15.8233 -5.24697 0 
15.819 -5.26052 0 15.814 -5.27439 0 15.8083 -5.28858 0 
15.8019 -5.30305 0 15.7948 -5.31782 0 15.787 -5.33286 0 
15.7786 -5.34816 0 15.7696 -5.36371 0 15.76 -5.37952 0 
15.7498 -5.39554 0 15.739 -5.41179 0 15.7277 -5.42824 0 
15.7158 -5.4449 0 15.7033 -5.46176 0 15.6903 -5.4788 0 
15.6769 -5.49601 0 15.6629 -5.5134 0 15.6484 -5.53094 0 
15.6335 -5.54864 0 15.6181 -5.5665 0 15.6023 -5.58449 0 
15.586 -5.60261 0 15.5692 -5.62086 0 15.5521 -5.63922 0 
15.5346 -5.65769 0 15.5166 -5.67628 0 15.4983 -5.69495 0 
15.4796 -5.71373 0 15.4605 -5.7326 0 15.441 -5.75156 0 
15.4212 -5.77059 0 15.4011 -5.78969 0 15.3806 -5.80886 0 
15.3598 -5.82809 0 15.3387 -5.84737 0 15.3173 -5.86672 0 
15.2955 -5.88611 0 15.2735 -5.90555 0 15.2512 -5.92502 0 
15.2286 -5.94455 0 15.2057 -5.9641 0 15.1826 -5.98366 0 
15.1592 -6.00326 0 15.1356 -6.02288 0 15.1117 -6.04251 0 
15.0876 -6.06217 0 15.0632 -6.08183 0 15.0386 -6.10149 0 
15.0138 -6.12115 0 14.9888 -6.14083 0 14.9636 -6.1605 0 
14.9382 -6.18016 0 14.9126 -6.1998 0 14.8868 -6.21944 0 
14.8608 -6.23907 0 14.8346 -6.25868 0 14.8082 -6.27827 0 
14.7817 -6.29784 0 14.755 -6.31737 0 14.7282 -6.33688 0 
14.7012 -6.35637 0 14.674 -6.37582 0 14.6467 -6.39524 0 
14.6193 -6.41461 0 14.5917 -6.43395 0 14.564 -6.45325 0 
14.5362 -6.47251 0 14.5082 -6.49172 0 14.4802 -6.51088 0 
14.452 -6.53 0 14.4237 -6.54906 0 14.3953 -6.56808 0 
14.3668 -6.58704 0 14.3381 -6.60594 0 14.3094 -6.62479 0 
14.2806 -6.64358 0 14.2517 -6.6623 0 14.2228 -6.68097 0 
14.1937 -6.69957 0 14.1646 -6.7181 0 14.1353 -6.73657 0 
14.1061 -6.75497 0 14.0767 -6.77332 0 14.0473 -6.79158 0 
14.0178 -6.80977 0 13.9882 -6.82789 0 13.9586 -6.84594 0 
13.929 -6.86391 0 13.8993 -6.8818 0 13.8695 -6.89962 0 
13.8397 -6.91736 0 13.8099 -6.93503 0 13.78 -6.95259 0 
13.7501 -6.97011 0 13.7201 -6.98752 0 13.6901 -7.00485 0 
13.6601 -7.0221 0 13.63 -7.03927 0 13.6 -7.05635 0 
13.5699 -7.07334 0 13.5397 -7.09026 0 13.5096 -7.10708 0 
13.4794 -7.12381 0 13.4493 -7.14045 0 13.4191 -7.157 0 
13.3889 -7.17346 0 13.3587 -7.18984 0 13.3284 -7.20612 0 
13.2982 -7.2223 0 13.268 -7.2384 0 13.2378 -7.2544 0 
13.2076 -7.27031 0 13.1774 -7.28612 0 13.1472 -7.30183 0 
13.117 -7.31746 0 13.0868 -7.33299 0 13.0566 -7.34842 0 
13.0264 -7.36376 0 12.9962 -7.37899 0 12.9661 -7.39413 0 
12.936 -7.40917 0 12.9058 -7.42412 0 12.8758 -7.43896 0 
12.8457 -7.45371 0 12.8156 -7.46835 0 12.7856 -7.48291 0 
12.7556 -7.49734 0 12.7256 -7.5117 0 12.6957 -7.52596 0 
12.6658 -7.5401 0 12.6359 -7.55415 0 12.606 -7.56809 0 
12.5762 -7.58193 0 12.5464 -7.59568 0 12.5167 -7.60932 0 
12.487 -7.62286 0 12.4573 -7.63631 0 12.4276 -7.64964 0 
12.398 -7.66288 0 12.3685 -7.67602 0 12.339 -7.68904 0 
12.3095 -7.70198 0 12.28 -7.7148 0 12.2507 -7.72753 0 
12.2213 -7.74015 0 12.192 -7.75267 0 12.1628 -7.76508 0 
12.1336 -7.7774 0 12.1045 -7.78961 0 12.0754 -7.80172 0 
12.0463 -7.81372 0 12.0173 -7.82563 0 11.9884 -7.83743 0 
11.9595 -7.84913 0 11.9307 -7.86072 0 11.902 -7.87222 0 
11.8732 -7.88361 0 11.8446 -7.89489 0 11.816 -7.90607 0 
11.7875 -7.91716 0 11.759 -7.92815 0 11.7306 -7.93902 0 
11.7022 -7.9498 0 11.6739 -7.96047 0 11.6457 -7.97104 0 
11.6176 -7.9815 0 11.5894 -7.99188 0 11.5614 -8.00215 0 
11.5334 -8.01231 0 11.5055 -8.02238 0 11.4776 -8.03234 0 
11.4499 -8.0422 0 11.4221 -8.05197 0 11.3945 -8.06163 0 
11.3669 -8.07118 0 11.3394 -8.08064 0 11.312 -8.08999 0 
11.2846 -8.09926 0 11.2573 -8.10841 0 11.2301 -8.11746 0 
11.203 -8.12642 0 11.1759 -8.13528 0 11.1489 -8.14404 0 
11.1219 -8.1527 0 11.095 -8.16127 0 11.0683 -8.16971 0 
11.0416 -8.17808 0 11.0149 -8.18635 0 10.9883 -8.19452 0 
10.9618 -8.20259 0 10.9354 -8.21055 0 10.9091 -8.21844 0 
10.8828 -8.22621 0 10.8566 -8.23389 0 10.8305 -8.24147 0 
10.8045 -8.24896 0 10.7785 -8.25635 0 10.7526 -8.26364 0 
10.7268 -8.27084 0 10.7011 -8.27795 0 10.6754 -8.28495 0 
10.6499 -8.29187 0 10.6244 -8.29869 0 10.599 -8.30541 0 
10.5736 -8.31205 0 10.5483 -8.31858 0 10.5232 -8.32501 0 
10.4981 -8.33136 0 10.4731 -8.33762 0 10.4482 -8.34378 0 
10.4233 -8.34986 0 10.3985 -8.35583 0 10.3738 -8.36172 0 
10.3492 -8.36753 0 10.3246 -8.37323 0 10.3002 -8.37883 0 
10.2758 -8.38436 0 10.2515 -8.38978 0 10.2274 -8.39512 0 
10.2032 -8.40038 0 10.1791 -8.40554 0 10.1552 -8.41061 0 
10.1313 -8.41559 0 10.1075 -8.42049 0 10.0838 -8.42529 0 
10.0601 -8.43002 0 10.0366 -8.43465 0 10.0132 -8.43917 0 
9.98977 -8.44363 0 9.96649 -8.448 0 9.94324 -8.45229 0 
9.92013 -8.45648 0 9.89705 -8.4606 0 9.87406 -8.46462 0 
9.85116 -8.46857 0 9.82839 -8.47241 0 9.80566 -8.47619 0 
9.78306 -8.47986 0 9.76047 -8.48347 0 9.738 -8.48699 0 
9.71563 -8.49042 0 9.6933 -8.49378 0 9.67106 -8.49705 0 
9.64896 -8.50023 0 9.6269 -8.50334 0 9.60493 -8.50636 0 
9.58301 -8.50931 0 9.56122 -8.51217 0 9.53952 -8.51494 0 
9.51787 -8.51764 0 9.49632 -8.52026 0 9.47486 -8.5228 0 
9.45345 -8.52527 0 9.43213 -8.52765 0 9.4109 -8.52996 0 
9.38977 -8.53219 0 9.36873 -8.53433 0 9.34774 -8.5364 0 
9.32689 -8.53838 0 9.30609 -8.5403 0 9.28534 -8.54214 0 
9.26469 -8.54391 0 9.24413 -8.5456 0 9.22367 -8.54721 0 
9.20326 -8.54875 0 9.18295 -8.55021 0 9.16273 -8.5516 0 
9.14257 -8.55291 0 9.12254 -8.55414 0 9.10257 -8.5553 0 
9.08265 -8.5564 0 9.06283 -8.55742 0 9.04307 -8.55837 0 
9.02345 -8.55925 0 9.00388 -8.56005 0 8.98436 -8.56079 0 
8.96495 -8.56145 0 8.94563 -8.56204 0 8.92636 -8.56257 0 
8.90724 -8.563 0 8.88817 -8.56338 0 8.86916 -8.56369 0 
8.85025 -8.56393 0 8.8314 -8.56411 0 8.81264 -8.56421 0 
8.79394 -8.56425 0 8.77534 -8.56422 0 8.75684 -8.56413 0 
8.7384 -8.56396 0 8.72009 -8.56371 0 8.7018 -8.56342 0 
8.68357 -8.56306 0 8.66548 -8.56263 0 8.64741 -8.56214 0 
8.62948 -8.56157 0 8.61161 -8.56095 0 8.59379 -8.56026 0 
8.57608 -8.55951 0 8.55842 -8.5587 0 8.54087 -8.55782 0 
8.52341 -8.55686 0 8.50601 -8.55585 0 8.48867 -8.55479 0 
8.47143 -8.55366 0 8.45426 -8.55247 0 8.43713 -8.55122 0 
8.42011 -8.54991 0 8.40319 -8.54853 0 8.38633 -8.5471 0 
8.36952 -8.54561 0 8.35287 -8.54404 0 8.33622 -8.54243 0 
8.31968 -8.54076 0 8.3032 -8.53903 0 8.28681 -8.53724 0 
8.27049 -8.53539 0 8.25423 -8.53349 0 8.23807 -8.53153 0 
8.22196 -8.52951 0 8.20591 -8.52744 0 8.18997 -8.52531 0 
8.17417 -8.5231 0 8.15835 -8.52086 0 8.14262 -8.51856 0 
8.127 -8.51621 0 8.11143 -8.5138 0 8.09593 -8.51134 0 
8.08048 -8.50883 0 8.06514 -8.50626 0 8.04986 -8.50364 0 
8.03467 -8.50096 0 8.01959 -8.49821 0 8.00452 -8.49543 0 
7.98952 -8.4926 0 7.97461 -8.48971 0 7.9598 -8.48678 0 
7.94501 -8.48379 0 7.93033 -8.48075 0 7.9157 -8.47766 0 
7.90118 -8.47452 0 7.88667 -8.47133 0 7.8723 -8.46808 0 
7.858 -8.46479 0 7.84371 -8.46145 0 7.82951 -8.45807 0 
7.81543 -8.45463 0 7.80136 -8.45115 0 7.78738 -8.44762 0 
7.77347 -8.44404 0 7.75962 -8.44042 0 7.74587 -8.43675 0 
7.73217 -8.43303 0 7.71858 -8.42924 0 7.705 -8.42543 0 
7.69153 -8.42158 0 7.67811 -8.41768 0 7.66475 -8.41373 0 
7.65145 -8.40974 0 7.63825 -8.4057 0 7.62506 -8.40163 0 
7.61198 -8.3975 0 7.59899 -8.39333 0 7.58607 -8.3891 0 
7.5732 -8.38485 0 7.56039 -8.38056 0 7.54764 -8.37622 0 
7.53495 -8.37183 0 7.52235 -8.36741 0 7.50982 -8.36295 0 
7.4973 -8.35844 0 7.48492 -8.3539 0 7.47255 -8.34931 0 
7.46025 -8.34469 0 7.44809 -8.34 0 7.43594 -8.33529 0 
7.42385 -8.33054 0 7.41181 -8.32576 0 7.39987 -8.32093 0 
7.38796 -8.31607 0 7.37613 -8.31117 0 7.36437 -8.30623 0 
7.35266 -8.30125 0 7.34101 -8.29623 0 7.3295 -8.29116 0 
7.31797 -8.28607 0 7.30653 -8.28094 0 7.29515 -8.27578 0 
7.28378 -8.27058 0 7.27255 -8.26535 0 7.26134 -8.26007 0 
7.25019 -8.25477 0 7.23913 -8.24943 0 7.22809 -8.24405 0 
7.21718 -8.23862 0 7.20629 -8.23317 0 7.19546 -8.22769 0 
7.18468 -8.22218 0 7.17396 -8.21663 0 7.16329 -8.21105 0 
7.15272 -8.20544 0 7.14216 -8.19979 0 7.1317 -8.19411 0 
7.1213 -8.1884 0 7.11091 -8.18266 0 7.10066 -8.17686 0 
7.09042 -8.17106 0 7.08024 -8.16522 0 7.07011 -8.15935 0 
7.06007 -8.15345 0 7.05005 -8.14752 0 7.04009 -8.14156 0 
7.03022 -8.13557 0 7.02036 -8.12955 0 7.0106 -8.1235 0 
7.00094 -8.1174 0 6.99125 -8.11129 0 6.98165 -8.10515 0 
6.9721 -8.09899 0 6.96261 -8.0928 0 6.95318 -8.08658 0 
6.94379 -8.08033 0 6.93446 -8.07405 0 6.92519 -8.06775 0 
6.91596 -8.06141 0 6.9068 -8.05505 0 6.89776 -8.04865 0 
6.8887 -8.04224 0 6.87969 -8.0358 0 6.87077 -8.02934 0 
6.86187 -8.02285 0 6.85302 -8.01633 0 6.84426 -8.00979 0 
6.83551 -8.00323 0 6.82686 -7.99664 0 6.81821 -7.99002 0 
6.80967 -7.98336 0 6.80117 -7.9767 0 6.79268 -7.97001 0 
6.78429 -7.9633 0 6.77591 -7.95657 0 6.76762 -7.94981 0 
6.75938 -7.94303 0 6.75115 -7.93623 0 6.74298 -7.9294 0 
6.73489 -7.92255 0 6.72682 -7.91568 0 6.71888 -7.90877 0 
6.71091 -7.90185 0 6.70302 -7.89492 0 6.69515 -7.88796 0 
6.68738 -7.88099 0 6.67961 -7.87398 0 6.67189 -7.86696 0 
6.66426 -7.85993 0 6.65664 -7.85286 0 6.64908 -7.84578 0 
6.64165 -7.83866 0 6.63418 -7.83154 0 6.62676 -7.8244 0 
6.61939 -7.81724 0 6.61208 -7.81006 0 6.6048 -7.80287 0 
6.59758 -7.79565 0 6.59042 -7.78842 0 6.58329 -7.78117 0 
6.57622 -7.7739 0 6.56925 -7.76659 0 6.56227 -7.75928 0 
6.55531 -7.75196 0 6.54843 -7.74462 0 6.5416 -7.73726 0 
6.53478 -7.72989 0 6.52805 -7.7225 0 6.52133 -7.71509 0 
6.51466 -7.70766 0 6.50807 -7.70022 0 6.50149 -7.69277 0 
6.49501 -7.68527 0 6.48853 -7.67778 0 6.48209 -7.67028 0 
6.47571 -7.66276 0 6.46932 -7.65523 0 6.46303 -7.64768 0 
6.45678 -7.64012 0 6.45055 -7.63254 0 6.44439 -7.62495 0 
6.43825 -7.61734 0 6.4322 -7.6097 0 6.42619 -7.60207 0 
6.42018 -7.59442 0 6.41423 -7.58676 0 6.40832 -7.57909 0 
6.40242 -7.57139 0 6.3966 -7.56369 0 6.39083 -7.55598 0 
6.38506 -7.54825 0 6.37934 -7.54051 0 6.37375 -7.53275 0 
6.36813 -7.52498 0 6.36254 -7.51721 0 6.35701 -7.50942 0 
6.35152 -7.50163 0 6.34603 -7.49381 0 6.34063 -7.48599 0 
6.33524 -7.47816 0 6.32993 -7.47032 0 6.32463 -7.46247 0 
6.31936 -7.4546 0 6.31419 -7.4467 0 6.30902 -7.43882 0 
6.30386 -7.43092 0 6.29878 -7.42302 0 6.2937 -7.4151 0 
6.28867 -7.40717 0 6.28372 -7.39924 0 6.27878 -7.3913 0 
6.27384 -7.38334 0 6.26898 -7.37538 0 6.26421 -7.36739 0 
6.2594 -7.35941 0 6.25464 -7.35142 0 6.24992 -7.34342 0 
6.24525 -7.33541 0 6.24061 -7.3274 0 6.23602 -7.31938 0 
6.23144 -7.31135 0 6.22693 -7.30331 0 6.22243 -7.29527 0 
6.21797 -7.28721 0 6.2136 -7.27913 0 6.20923 -7.27106 0 
6.20486 -7.26299 0 6.20054 -7.2549 0 6.19629 -7.24682 0 
6.19205 -7.23872 0 6.18785 -7.23062 0 6.18365 -7.22251 0 
6.17954 -7.2144 0 6.17542 -7.20628 0 6.1714 -7.19812 0 
6.16737 -7.18999 0 6.16338 -7.18185 0 6.15944 -7.17371 0 
6.15549 -7.16556 0 6.15163 -7.15741 0 6.14777 -7.14925 0 
6.14395 -7.14108 0 6.14018 -7.13292 0 6.13639 -7.12474 0 
6.13266 -7.11656 0 6.12905 -7.10835 0 6.12536 -7.10016 0 
6.12175 -7.09197 0 6.11817 -7.08377 0 6.11461 -7.07557 0 
6.11107 -7.06736 0 6.10759 -7.05915 0 6.10414 -7.05094 0 
6.10072 -7.04273 0 6.09732 -7.0345 0 6.09399 -7.02626 0 
6.09067 -7.01803 0 6.08738 -7.0098 0 6.08413 -7.00157 0 
6.08088 -6.99333 0 6.07768 -6.98509 0 6.07451 -6.97685 0 
6.07138 -6.96861 0 6.06824 -6.96036 0 6.0652 -6.95211 0 
6.06215 -6.94386 0 6.05919 -6.93559 0 6.05617 -6.92733 0 
6.05324 -6.91907 0 6.05031 -6.91081 0 6.04741 -6.90255 0 
6.04455 -6.89429 0 6.04171 -6.88603 0 6.03892 -6.87776 0 
6.03614 -6.8695 0 6.03337 -6.86122 0 6.03071 -6.85293 0 
6.02801 -6.84466 0 6.02538 -6.83639 0 6.02275 -6.82812 0 
6.02013 -6.81985 0 6.01758 -6.81158 0 6.01503 -6.8033 0 
6.01252 -6.79503 0 6.01004 -6.78675 0 6.00757 -6.77848 0 
6.00517 -6.77018 0 6.00277 -6.7619 0 6.00041 -6.75363 0 
5.99808 -6.74536 0 5.99576 -6.73708 0 5.99347 -6.72881 0 
5.99121 -6.72054 0 5.98896 -6.71226 0 5.98678 -6.70399 0 
5.9846 -6.69572 0 5.98242 -6.68745 0 5.98035 -6.67916 0 
5.97825 -6.67089 0 5.97617 -6.66262 0 5.97414 -6.65436 0 
5.97214 -6.64609 0 5.97013 -6.63783 0 5.96817 -6.62957 0 
5.96624 -6.62131 0 5.96431 -6.61304 0 5.96242 -6.60479 0 
5.9606 -6.59651 0 5.95878 -6.58826 0 5.95696 -6.58 0 
5.95516 -6.57175 0 5.95342 -6.5635 0 5.9517 -6.55526 0 
5.94998 -6.54702 0 5.94829 -6.53877 0 5.94664 -6.53054 0 
5.94499 -6.5223 0 5.94342 -6.51407 0 5.94188 -6.50582 0 
5.94029 -6.49758 0 5.93878 -6.48936 0 5.93727 -6.48114 0 
5.93579 -6.47292 0 5.93431 -6.4647 0 5.9329 -6.45649 0 
5.93149 -6.44828 0 5.93008 -6.44007 0 5.92874 -6.43187 0 
5.92743 -6.42365 0 5.92612 -6.41545 0 5.9248 -6.40725 0 
5.92356 -6.39907 0 5.92232 -6.39089 0 5.92107 -6.3827 0 
5.91989 -6.37453 0 5.91872 -6.36635 0 5.91757 -6.35818 0 
5.91642 -6.35001 0 5.91538 -6.34183 0 5.9143 -6.33367 0 
5.91322 -6.32551 0 5.9122 -6.31737 0 5.91119 -6.30923 0 
5.91016 -6.30108 0 5.90921 -6.29295 0 5.90826 -6.28481 0 
5.90733 -6.27669 0 5.90645 -6.26857 0 5.90556 -6.26045 0 
5.90474 -6.25231 0 5.90388 -6.2442 0 5.90309 -6.2361 0 
5.90229 -6.228 0 5.90149 -6.2199 0 5.90076 -6.21182 0 
5.90003 -6.20374 0 5.89933 -6.19566 0 5.89862 -6.18759 0 
5.89795 -6.17952 0 5.89735 -6.17143 0 5.89674 -6.16338 0 
5.89613 -6.15533 0 5.89555 -6.14728 0 5.89501 -6.13925 0 
5.89446 -6.13121 0 5.89394 -6.12318 0 5.89341 -6.11516 0 
5.89296 -6.10715 0 5.8925 -6.09914 0 5.89204 -6.09112 0 
5.89169 -6.08311 0 5.89129 -6.07512 0 5.89092 -6.06713 0 
5.89055 -6.05915 0 5.89021 -6.05117 0 5.8899 -6.04321 0 
5.88959 -6.03524 0 5.8893 -6.02728 0 5.88906 -6.01934 0 
5.8888 -6.01139 0 5.88866 -6.00344 0 5.88843 -5.99551 0 
5.88827 -5.98759 0 5.88811 -5.97967 0 5.88797 -5.97176 0 
5.88784 -5.96386 0 5.88773 -5.95596 0 5.88765 -5.94807 0 
5.88757 -5.94018 0 5.88752 -5.93231 0 5.88754 -5.92442 0 
5.88755 -5.91656 0 5.88756 -5.90871 0 5.8876 -5.90086 0 
5.88763 -5.89302 0 5.88769 -5.88518 0 5.88779 -5.87736 0 
5.88788 -5.86954 0 5.888 -5.86172 0 5.88815 -5.85392 0 
5.8883 -5.84612 0 5.88851 -5.83831 0 5.88871 -5.83053 0 
5.88891 -5.82275 0 5.88915 -5.81499 0 5.88941 -5.80723 0 
5.88966 -5.79948 0 5.88995 -5.79173 0 5.89023 -5.78399 0 
5.89054 -5.77626 0 5.89088 -5.76854 0 5.89129 -5.76081 0 
5.89166 -5.7531 0 5.89205 -5.7454 0 5.89244 -5.73771 0 
5.89286 -5.73003 0 5.89331 -5.72235 0 5.89375 -5.71468 0 
5.89423 -5.70702 0 5.89473 -5.69938 0 5.89523 -5.69173 0 
5.89575 -5.6841 0 5.89635 -5.67646 0 5.8969 -5.66883 0 
5.89748 -5.66123 0 5.89806 -5.65362 0 5.89865 -5.64602 0 
5.89929 -5.63844 0 5.89995 -5.63087 0 5.90061 -5.6233 0 
5.90126 -5.61574 0 5.90198 -5.60819 0 5.90273 -5.60063 0 
5.90343 -5.59309 0 5.90416 -5.58556 0 5.90492 -5.57804 0 
5.90571 -5.57054 0 5.9065 -5.56304 0 5.90727 -5.55554 0 
5.90812 -5.54806 0 5.90895 -5.54059 0 5.90978 -5.53311 0 
5.91072 -5.52564 0 5.91157 -5.51819 0 5.91249 -5.51075 0 
5.9134 -5.50332 0 5.91434 -5.4959 0 5.91527 -5.48848 0 
5.91623 -5.48108 0 5.91722 -5.47369 0 5.9182 -5.4663 0 
5.91922 -5.45893 0 5.92022 -5.45155 0 5.9213 -5.44417 0 
5.92237 -5.43682 0 5.92342 -5.42948 0 5.9245 -5.42214 0 
5.92562 -5.41482 0 5.92672 -5.40751 0 5.92786 -5.4002 0 
5.92899 -5.3929 0 5.93015 -5.38562 0 5.93133 -5.37834 0 
5.93255 -5.37105 0 5.93376 -5.36379 0 5.935 -5.35655 0 
5.93623 -5.34931 0 5.93745 -5.34207 0 5.93874 -5.33485 0 
5.94002 -5.32764 0 5.94129 -5.32042 0 5.9426 -5.31323 0 
5.94393 -5.30604 0 5.94529 -5.29887 0 5.94664 -5.2917 0 
5.94798 -5.28454 0 5.94936 -5.27739 0 5.95077 -5.27025 0 
5.95219 -5.26312 0 5.95362 -5.256 0 5.95504 -5.24888 0 
5.95648 -5.24178 0 5.95795 -5.23469 0 5.95945 -5.22761 0 
5.96095 -5.22054 0 5.96243 -5.21347 0 5.96398 -5.20643 0 
5.96552 -5.19938 0 5.96706 -5.19234 0 5.96862 -5.18531 0 
5.97021 -5.17831 0 5.97179 -5.1713 0 5.9734 -5.1643 0 
5.975 -5.15731 0 5.97664 -5.15033 0 5.9783 -5.14337 0 
5.97995 -5.13641 0 5.98163 -5.12946 0 5.98334 -5.12253 0 
5.98504 -5.1156 0 5.98673 -5.10868 0 5.98845 -5.10177 0 
5.9902 -5.09487 0 5.99197 -5.08799 0 5.99374 -5.08111 0 
5.9955 -5.07423 0 5.99732 -5.06738 0 5.99911 -5.06053 0 
6.00095 -5.0537 0 6.00278 -5.04686 0 6.00461 -5.04004 0 
6.00646 -5.03323 0 6.00835 -5.02643 0 6.01023 -5.01964 0 
6.01213 -5.01286 0 6.01406 -5.00609 0 6.01598 -4.99933 0 
6.01793 -4.99259 0 6.01988 -4.98584 0 6.02185 -4.97912 0 
6.02381 -4.97239 0 6.0258 -4.96568 0 6.02781 -4.95898 0 
6.02983 -4.95229 0 6.03187 -4.94561 0 6.03389 -4.93894 0 
6.03595 -4.93228 0 6.03804 -4.92564 0 6.04012 -4.91899 0 
6.04218 -4.91236 0 6.04431 -4.90574 0 6.04643 -4.89914 0 
6.04855 -4.89253 0 6.05069 -4.88594 0 6.05286 -4.87937 0 
6.05503 -4.8728 0 6.05722 -4.86624 0 6.05939 -4.85969 0 
6.06161 -4.85315 0 6.06381 -4.84662 0 6.06604 -4.8401 0 
6.0683 -4.83359 0 6.07054 -4.82709 0 6.07281 -4.8206 0 
6.07508 -4.81412 0 6.07737 -4.80765 0 6.0797 -4.8012 0 
6.08202 -4.79475 0 6.08436 -4.78832 0 6.08669 -4.78189 0 
6.08905 -4.77547 0 6.0914 -4.76906 0 6.09378 -4.76266 0 
6.09618 -4.75628 0 6.09859 -4.7499 0 6.10098 -4.74353 0 
6.10343 -4.73718 0 6.10584 -4.73082 0 6.10831 -4.72449 0 
6.11077 -4.71817 0 6.11323 -4.71185 0 6.11571 -4.70554 0 
6.11823 -4.69925 0 6.12072 -4.69296 0 6.12326 -4.68669 0 
6.12582 -4.68043 0 6.12833 -4.67416 0 6.1309 -4.66793 0 
6.13348 -4.66169 0 6.13607 -4.65547 0 6.13866 -4.64925 0 
6.14127 -4.64305 0 6.14388 -4.63685 0 6.14651 -4.63067 0 
6.14914 -4.62449 0 6.15178 -4.61833 0 6.15447 -4.61218 0 
6.15714 -4.60604 0 6.15984 -4.59991 0 6.16253 -4.59378 0 
6.16524 -4.58767 0 6.16795 -4.58156 0 6.17069 -4.57548 0 
6.17345 -4.5694 0 6.17621 -4.56333 0 6.17899 -4.55727 0 
6.18177 -4.55122 0 6.18457 -4.54518 0 6.18736 -4.53915 0 
6.19019 -4.53313 0 6.19299 -4.52711 0 6.19583 -4.52111 0 
6.1987 -4.51512 0 6.20156 -4.50914 0 6.20445 -4.50318 0 
6.20733 -4.49722 0 6.21023 -4.49127 0 6.21313 -4.48533 0 
6.21605 -4.4794 0 6.21897 -4.47347 0 6.22191 -4.46757 0 
6.22488 -4.46167 0 6.22784 -4.45578 0 6.23083 -4.44991 0 
6.23382 -4.44404 0 6.23682 -4.43818 0 6.23982 -4.43233 0 
6.24285 -4.42649 0 6.24586 -4.42066 0 6.24891 -4.41484 0 
6.25198 -4.40904 0 6.25505 -4.40324 0 6.25814 -4.39746 0 
6.26123 -4.39168 0 6.26434 -4.38592 0 6.26745 -4.38016 0 
6.27057 -4.37441 0 6.2737 -4.36867 0 6.27685 -4.36294 0 
6.28003 -4.35724 0 6.2832 -4.35153 0 6.28636 -4.34583 0 
6.28955 -4.34014 0 6.29276 -4.33446 0 6.29597 -4.32879 0 
6.2992 -4.32314 0 6.30243 -4.31749 0 6.30569 -4.31186 0 
6.30896 -4.30624 0 6.31224 -4.30062 0 6.3155 -4.29501 0 
6.31879 -4.28941 0 6.32211 -4.28383 0 6.32542 -4.27826 0 
6.32876 -4.27269 0 6.33209 -4.26714 0 6.33545 -4.26159 0 
6.3388 -4.25605 0 6.34218 -4.25053 0 6.34555 -4.24501 0 
6.34894 -4.2395 0 6.35237 -4.23401 0 6.35579 -4.22852 0 
6.35923 -4.22305 0 6.36267 -4.21758 0 6.36613 -4.21213 0 
6.36958 -4.20668 0 6.37307 -4.20125 0 6.37654 -4.19582 0 
6.38004 -4.1904 0 6.38353 -4.18499 0 6.38706 -4.1796 0 
6.39057 -4.17421 0 6.39411 -4.16883 0 6.39768 -4.16347 0 
6.40124 -4.15811 0 6.40482 -4.15276 0 6.4084 -4.14743 0 
6.41201 -4.1421 0 6.41561 -4.13678 0 6.41924 -4.13148 0 
6.42285 -4.12617 0 6.4265 -4.12089 0 6.43014 -4.11561 0 
6.4338 -4.11034 0 6.4375 -4.10509 0 6.44118 -4.09984 0 
6.44486 -4.09459 0 6.44856 -4.08936 0 6.4523 -4.08414 0 
6.45602 -4.07893 0 6.45978 -4.07374 0 6.46352 -4.06854 0 
6.4673 -4.06336 0 6.47106 -4.05819 0 6.47485 -4.05303 0 
6.47863 -4.04787 0 6.48245 -4.04273 0 6.48629 -4.03761 0 