# vtk DataFile Version 3.0
vtk output
ASCII
DATASET POLYDATA
POINTS 5000 float
13.813 -38.5973 0 17.2285 -37.9955 0 18.6626 -37.7304 0 
19.7677 -37.5231 0 20.7014 -37.3468 0 21.5246 -37.191 0 
22.2688 -37.05 0 22.9526 -36.9208 0 23.5884 -36.8012 0 
24.1845 -36.6895 0 24.7471 -36.5847 0 25.2811 -36.4859 0 
25.7901 -36.3924 0 26.2769 -36.3037 0 26.744 -36.2193 0 
27.1934 -36.1389 0 27.6265 -36.062 0 28.045 -35.9885 0 
28.45 -35.918 0 28.8424 -35.8505 0 29.2233 -35.7856 0 
29.5934 -35.7232 0 29.9536 -35.6632 0 30.3042 -35.6054 0 
30.6461 -35.5496 0 30.9796 -35.4959 0 31.3051 -35.444 0 
31.6233 -35.3939 0 31.9343 -35.3455 0 32.2387 -35.2987 0 
32.5367 -35.2534 0 32.8284 -35.2096 0 33.1145 -35.1672 0 
33.395 -35.1261 0 33.6701 -35.0863 0 33.9401 -35.0477 0 
34.2051 -35.0103 0 34.4655 -34.9739 0 34.7213 -34.9387 0 
34.9727 -34.9044 0 35.22 -34.8712 0 35.4632 -34.8389 0 
35.7024 -34.8075 0 35.9378 -34.7769 0 36.1697 -34.7472 0 
36.398 -34.7184 0 36.6229 -34.6902 0 36.8445 -34.6628 0 
37.0628 -34.6361 0 37.2779 -34.6102 0 37.4902 -34.5848 0 
37.6994 -34.5602 0 37.9059 -34.5361 0 38.1095 -34.5126 0 
38.3104 -34.4897 0 38.5088 -34.4674 0 38.7046 -34.4455 0 
38.8979 -34.4242 0 39.0888 -34.4033 0 39.2774 -34.383 0 
39.4636 -34.3631 0 39.6477 -34.3436 0 39.8296 -34.3245 0 
40.0093 -34.3059 0 40.187 -34.2877 0 40.3627 -34.2698 0 
40.5364 -34.2523 0 40.7082 -34.2351 0 40.8781 -34.2182 0 
41.0461 -34.2017 0 41.2124 -34.1856 0 41.3769 -34.1697 0 
41.5397 -34.1541 0 41.7008 -34.1388 0 41.8603 -34.1237 0 
42.0181 -34.1089 0 42.1745 -34.0944 0 42.3292 -34.0801 0 
42.4825 -34.066 0 42.6343 -34.0521 0 42.7846 -34.0385 0 
42.9336 -34.025 0 43.0812 -34.0118 0 43.2274 -33.9988 0 
43.3722 -33.9859 0 43.5158 -33.9732 0 43.6581 -33.9607 0 
43.7991 -33.9483 0 43.9389 -33.9361 0 44.0775 -33.9239 0 
44.215 -33.912 0 44.3512 -33.9001 0 44.4864 -33.8885 0 
44.6203 -33.8769 0 44.7532 -33.8655 0 44.8851 -33.8541 0 
45.0158 -33.8429 0 45.1455 -33.8318 0 45.2742 -33.8207 0 
45.402 -33.8097 0 45.5287 -33.7988 0 45.6544 -33.788 0 
45.7792 -33.7773 0 45.9031 -33.7667 0 46.026 -33.7561 0 
46.1481 -33.7456 0 46.2693 -33.7351 0 46.3895 -33.7247 0 
46.5089 -33.7144 0 46.6275 -33.7041 0 46.7453 -33.6937 0 
46.8622 -33.6835 0 46.9783 -33.6733 0 47.0937 -33.6632 0 
47.2083 -33.653 0 47.3221 -33.643 0 47.4351 -33.6329 0 
47.5474 -33.6228 0 47.659 -33.6128 0 47.7698 -33.6028 0 
47.88 -33.5927 0 47.9895 -33.5827 0 48.0982 -33.5727 0 
48.2063 -33.5627 0 48.3137 -33.5528 0 48.4205 -33.5428 0 
48.5267 -33.5328 0 48.6321 -33.5228 0 48.737 -33.5128 0 
48.8412 -33.5028 0 48.9448 -33.4928 0 49.0479 -33.4827 0 
49.1504 -33.4727 0 49.2522 -33.4626 0 49.3536 -33.4525 0 
49.4543 -33.4425 0 49.5544 -33.4323 0 49.6541 -33.4222 0 
49.7531 -33.412 0 49.8516 -33.4018 0 49.9497 -33.3916 0 
50.0471 -33.3813 0 50.1442 -33.371 0 50.2407 -33.3607 0 
50.3366 -33.3503 0 50.4321 -33.3399 0 50.5271 -33.3295 0 
50.6217 -33.319 0 50.7157 -33.3085 0 50.8093 -33.298 0 
50.9024 -33.2874 0 50.9951 -33.2767 0 51.0873 -33.266 0 
51.1791 -33.2552 0 51.2704 -33.2445 0 51.3614 -33.2337 0 
51.4518 -33.2228 0 51.5419 -33.2119 0 51.6315 -33.2009 0 
51.7208 -33.1899 0 51.8097 -33.1788 0 51.8981 -33.1677 0 
51.9862 -33.1564 0 52.0738 -33.1452 0 52.1611 -33.1339 0 
52.248 -33.1225 0 52.3345 -33.1111 0 52.4207 -33.0996 0 
52.5065 -33.0881 0 52.5919 -33.0765 0 52.677 -33.0648 0 
52.7617 -33.0532 0 52.8461 -33.0413 0 52.9301 -33.0294 0 
53.0138 -33.0175 0 53.0972 -33.0056 0 53.1802 -32.9935 0 
53.2629 -32.9814 0 53.3453 -32.9693 0 53.4273 -32.9571 0 
53.509 -32.9448 0 53.5904 -32.9324 0 53.6715 -32.92 0 
53.7524 -32.9074 0 53.8329 -32.8948 0 53.9131 -32.8822 0 
53.9929 -32.8695 0 54.0726 -32.8567 0 54.1519 -32.8439 0 
54.231 -32.831 0 54.3097 -32.818 0 54.3882 -32.8049 0 
54.4664 -32.7918 0 54.5443 -32.7785 0 54.622 -32.7652 0 
54.6994 -32.7519 0 54.7765 -32.7385 0 54.8534 -32.725 0 
54.93 -32.7114 0 55.0063 -32.6978 0 55.0824 -32.6841 0 
55.1583 -32.6703 0 55.2339 -32.6564 0 55.3092 -32.6425 0 
55.3844 -32.6284 0 55.4593 -32.6143 0 55.5339 -32.6001 0 
55.6083 -32.5859 0 55.6824 -32.5716 0 55.7564 -32.5572 0 
55.83 -32.5428 0 55.9036 -32.5282 0 55.9768 -32.5136 0 
56.0499 -32.4989 0 56.1227 -32.4841 0 56.1953 -32.4692 0 
56.2677 -32.4543 0 56.3398 -32.4393 0 56.4118 -32.4242 0 
56.4835 -32.4091 0 56.5551 -32.3939 0 56.6264 -32.3786 0 
56.6976 -32.3632 0 56.7685 -32.3478 0 56.8393 -32.3321 0 
56.9098 -32.3165 0 56.9802 -32.3008 0 57.0504 -32.2851 0 
57.1203 -32.2692 0 57.1901 -32.2533 0 57.2597 -32.2373 0 
57.3291 -32.2212 0 57.3984 -32.2051 0 57.4674 -32.1889 0 
57.5362 -32.1726 0 57.605 -32.1561 0 57.6735 -32.1396 0 
57.7418 -32.1231 0 57.81 -32.1065 0 57.8779 -32.0898 0 
57.9457 -32.073 0 58.0134 -32.0562 0 58.0809 -32.0393 0 
58.1481 -32.0223 0 58.2154 -32.0052 0 58.2823 -31.9879 0 
58.3491 -31.9707 0 58.4158 -31.9534 0 58.4823 -31.936 0 
58.5487 -31.9186 0 58.6148 -31.901 0 58.6809 -31.8834 0 
58.7467 -31.8657 0 58.8125 -31.848 0 58.8781 -31.8301 0 
58.9435 -31.8122 0 59.0088 -31.7941 0 59.0739 -31.776 0 
59.1389 -31.7579 0 59.2038 -31.7397 0 59.2685 -31.7214 0 
59.333 -31.703 0 59.3974 -31.6846 0 59.4617 -31.6661 0 
59.5259 -31.6475 0 59.5898 -31.6288 0 59.6537 -31.6099 0 
59.7175 -31.5911 0 59.7811 -31.5722 0 59.8445 -31.5533 0 
59.9078 -31.5342 0 59.971 -31.5151 0 60.034 -31.4959 0 
60.097 -31.4767 0 60.1599 -31.4573 0 60.2225 -31.4379 0 
60.285 -31.4184 0 60.3475 -31.3988 0 60.4098 -31.3791 0 
60.472 -31.3594 0 60.5341 -31.3396 0 60.596 -31.3198 0 
60.6578 -31.2999 0 60.7195 -31.2799 0 60.781 -31.2598 0 
60.8425 -31.2397 0 60.9038 -31.2195 0 60.9651 -31.1991 0 
61.0262 -31.1787 0 61.0872 -31.1583 0 61.1481 -31.1378 0 
61.2088 -31.1173 0 61.2695 -31.0966 0 61.33 -31.0759 0 
61.3904 -31.0552 0 61.4507 -31.0343 0 61.5109 -31.0134 0 
61.571 -30.9923 0 61.6311 -30.9712 0 61.691 -30.9501 0 
61.7507 -30.9289 0 61.8104 -30.9077 0 61.87 -30.8863 0 
61.9294 -30.8649 0 61.9887 -30.8435 0 62.048 -30.8219 0 
62.1072 -30.8003 0 62.1662 -30.7787 0 62.2252 -30.7568 0 
62.284 -30.735 0 62.3428 -30.7131 0 62.4014 -30.6912 0 
62.46 -30.6692 0 62.5184 -30.6471 0 62.5768 -30.625 0 
62.635 -30.6028 0 62.6931 -30.5805 0 62.7512 -30.5582 0 
62.8092 -30.5357 0 62.8671 -30.5132 0 62.9249 -30.4907 0 
62.9826 -30.4681 0 63.0401 -30.4454 0 63.0976 -30.4227 0 
63.155 -30.3999 0 63.2123 -30.3771 0 63.2695 -30.3541 0 
63.3267 -30.3312 0 63.3838 -30.308 0 63.4407 -30.2849 0 
63.4976 -30.2617 0 63.5544 -30.2385 0 63.6111 -30.2152 0 
63.6676 -30.1919 0 63.7241 -30.1685 0 63.7806 -30.145 0 
63.8369 -30.1215 0 63.8932 -30.0979 0 63.9493 -30.0742 0 
64.0055 -30.0504 0 64.0614 -30.0266 0 64.1173 -30.0028 0 
64.1731 -29.9789 0 64.2289 -29.9549 0 64.2846 -29.9309 0 
64.3402 -29.9068 0 64.3957 -29.8827 0 64.451 -29.8585 0 
64.5064 -29.8342 0 64.5616 -29.8098 0 64.6168 -29.7854 0 
64.672 -29.761 0 64.7269 -29.7365 0 64.7819 -29.712 0 
64.8367 -29.6874 0 64.8914 -29.6627 0 64.9462 -29.638 0 
65.0008 -29.6132 0 65.0553 -29.5884 0 65.1097 -29.5635 0 
65.1642 -29.5385 0 65.2185 -29.5135 0 65.2727 -29.4885 0 
65.3268 -29.4634 0 65.3809 -29.4382 0 65.4349 -29.413 0 
65.4889 -29.3877 0 65.5427 -29.3624 0 65.5964 -29.337 0 
65.6502 -29.3116 0 65.7038 -29.286 0 65.7574 -29.2605 0 
65.8108 -29.2349 0 65.8642 -29.2093 0 65.9175 -29.1836 0 
65.9708 -29.1579 0 66.024 -29.1321 0 66.077 -29.1062 0 
66.1301 -29.0803 0 66.1831 -29.0544 0 66.236 -29.0284 0 
66.2888 -29.0022 0 66.3416 -28.9762 0 66.3943 -28.95 0 
66.4468 -28.9238 0 66.4994 -28.8976 0 66.5518 -28.8713 0 
66.6042 -28.8449 0 66.6565 -28.8186 0 66.7088 -28.7921 0 
66.761 -28.7656 0 66.8131 -28.739 0 66.8652 -28.7124 0 
66.9172 -28.6858 0 66.9691 -28.6591 0 67.0209 -28.6324 0 
67.0727 -28.6056 0 67.1243 -28.5788 0 67.176 -28.5519 0 
67.2275 -28.525 0 67.2791 -28.4981 0 67.3305 -28.4709 0 
67.3819 -28.4439 0 67.4332 -28.4168 0 67.4844 -28.3897 0 
67.5355 -28.3625 0 67.5866 -28.3353 0 67.6376 -28.308 0 
67.6886 -28.2807 0 67.7395 -28.2533 0 67.7903 -28.2259 0 
67.841 -28.1985 0 67.8918 -28.1709 0 67.9424 -28.1433 0 
67.993 -28.1158 0 68.0434 -28.0882 0 68.0939 -28.0605 0 
68.1443 -28.0328 0 68.1945 -28.0051 0 68.2448 -27.9773 0 
68.295 -27.9495 0 68.3451 -27.9216 0 68.3952 -27.8936 0 
68.4451 -27.8657 0 68.495 -27.8377 0 68.5449 -27.8097 0 
68.5947 -27.7816 0 68.6444 -27.7535 0 68.694 -27.7254 0 
68.7437 -27.6972 0 68.7931 -27.669 0 68.8426 -27.6407 0 
68.892 -27.6124 0 68.9414 -27.584 0 68.9907 -27.5556 0 
69.0399 -27.5272 0 69.089 -27.4988 0 69.1381 -27.4703 0 
69.1871 -27.4418 0 69.2361 -27.4132 0 69.285 -27.3846 0 
69.3338 -27.356 0 69.3826 -27.3273 0 69.4313 -27.2985 0 
69.4799 -27.2698 0 69.5285 -27.241 0 69.577 -27.2122 0 
69.6255 -27.1834 0 69.6739 -27.1545 0 69.7222 -27.1256 0 
69.7705 -27.0967 0 69.8187 -27.0677 0 69.8669 -27.0387 0 
69.915 -27.0095 0 69.963 -26.9805 0 70.011 -26.9514 0 
70.0589 -26.9222 0 70.1067 -26.8931 0 70.1545 -26.8639 0 
70.2022 -26.8346 0 70.2499 -26.8054 0 70.2974 -26.7761 0 
70.3449 -26.7467 0 70.3925 -26.7174 0 70.4399 -26.6879 0 
70.4873 -26.6585 0 70.5345 -26.629 0 70.5818 -26.5995 0 
70.6289 -26.57 0 70.676 -26.5405 0 70.7231 -26.5109 0 
70.77 -26.4813 0 70.817 -26.4517 0 70.8638 -26.422 0 
70.9106 -26.3922 0 70.9574 -26.3625 0 71.0041 -26.3328 0 
71.0507 -26.303 0 71.0973 -26.2732 0 71.1438 -26.2434 0 
71.1902 -26.2135 0 71.2365 -26.1837 0 71.2829 -26.1537 0 
71.3291 -26.1238 0 71.3754 -26.0939 0 71.4215 -26.0638 0 
71.4676 -26.0337 0 71.5136 -26.0037 0 71.5595 -25.9736 0 
71.6054 -25.9436 0 71.6513 -25.9134 0 71.697 -25.8833 0 
71.7428 -25.8531 0 71.7884 -25.823 0 71.834 -25.7927 0 
71.8796 -25.7624 0 71.925 -25.7321 0 71.9705 -25.7018 0 
72.0158 -25.6715 0 72.0611 -25.6412 0 72.1063 -25.6109 0 
72.1515 -25.5805 0 72.1966 -25.5501 0 72.2417 -25.5197 0 
72.2866 -25.4892 0 72.3316 -25.4588 0 72.3765 -25.4281 0 
72.4213 -25.3976 0 72.4661 -25.3671 0 72.5108 -25.3365 0 
72.5554 -25.306 0 72.6 -25.2754 0 72.6445 -25.2448 0 
72.6889 -25.2141 0 72.7333 -25.1835 0 72.7777 -25.1528 0 
72.8219 -25.122 0 72.8662 -25.0913 0 72.9103 -25.0605 0 
[...]
POINT_DATA 5000
VECTORS velocity double
17.7488 -12.8755 0 17.588 -12.1185 0 17.526 -11.7872 0 
17.4791 -11.5291 0 17.4393 -11.3101 0 17.4039 -11.1171 0 
17.3711 -10.9433 0 17.3402 -10.7844 0 17.3107 -10.6378 0 
17.2821 -10.5016 0 17.2541 -10.3743 0 17.2267 -10.2549 0 
17.1995 -10.1424 0 17.1726 -10.0363 0 17.1458 -9.93586 0 
17.1191 -9.84064 0 17.0925 -9.75029 0 17.0658 -9.66437 0 
17.039 -9.58258 0 17.0122 -9.50469 0 16.9853 -9.4304 0 
16.9582 -9.35953 0 16.9311 -9.29187 0 16.9038 -9.22724 0 
16.8764 -9.16547 0 16.8488 -9.10641 0 16.8211 -9.04998 0 
16.7932 -8.99597 0 16.7652 -8.94428 0 16.737 -8.89482 0 
16.7087 -8.84748 0 16.6803 -8.80219 0 16.6517 -8.75881 0 
16.6229 -8.7173 0 16.5941 -8.67756 0 16.5651 -8.63953 0 
16.536 -8.60313 0 16.5067 -8.56831 0 16.4774 -8.53498 0 
16.4479 -8.50309 0 16.4183 -8.47259 0 16.3886 -8.44342 0 
16.3588 -8.41554 0 16.329 -8.3889 0 16.299 -8.36344 0 
16.269 -8.33912 0 16.2389 -8.31591 0 16.2087 -8.29377 0 
16.1784 -8.27265 0 16.1481 -8.25252 0 16.1177 -8.23333 0 
16.0873 -8.21506 0 16.0568 -8.19768 0 16.0263 -8.18116 0 
15.9958 -8.16546 0 15.9652 -8.15056 0 15.9345 -8.13643 0 
15.9039 -8.12304 0 15.8732 -8.11038 0 15.8425 -8.09841 0 
15.8118 -8.0871 0 15.7811 -8.07645 0 15.7504 -8.06641 0 
15.7197 -8.05699 0 15.689 -8.04815 0 15.6583 -8.03988 0 
15.6276 -8.03215 0 15.5969 -8.02496 0 15.5662 -8.01828 0 
15.5356 -8.01209 0 15.5049 -8.00638 0 15.4743 -8.00113 0 
15.4437 -7.99633 0 15.4132 -7.99196 0 15.3827 -7.98802 0 
15.3522 -7.98448 0 15.3218 -7.98133 0 15.2914 -7.97856 0 
15.261 -7.97616 0 15.2308 -7.97412 0 15.2005 -7.97241 0 
15.1703 -7.97104 0 15.1401 -7.97 0 15.1101 -7.96926 0 
15.08 -7.96882 0 15.0501 -7.96868 0 15.0202 -7.96882 0 
14.9903 -7.96923 0 14.9605 -7.9699 0 14.9309 -7.97084 0 
14.9012 -7.97201 0 14.8717 -7.97343 0 14.8422 -7.97508 0 
14.8128 -7.97694 0 14.7835 -7.97903 0 14.7542 -7.98132 0 
14.725 -7.98381 0 14.696 -7.9865 0 14.667 -7.98938 0 
14.6381 -7.99244 0 14.6092 -7.99567 0 14.5805 -7.99907 0 
14.5518 -8.00263 0 14.5233 -8.00636 0 14.4948 -8.01023 0 
14.4664 -8.01426 0 14.4381 -8.01842 0 14.4099 -8.02272 0 
14.3818 -8.02715 0 14.3538 -8.03171 0 14.326 -8.03639 0 
14.2982 -8.04118 0 14.2705 -8.04609 0 14.2429 -8.05111 0 
14.2154 -8.05624 0 14.188 -8.06146 0 14.1607 -8.06678 0 
14.1335 -8.0722 0 14.1064 -8.0777 0 14.0794 -8.08328 0 
14.0526 -8.08895 0 14.0258 -8.0947 0 13.9991 -8.10052 0 
13.9726 -8.10642 0 13.9462 -8.11238 0 13.9198 -8.11841 0 
13.8936 -8.1245 0 13.8675 -8.13065 0 13.8415 -8.13686 0 
13.8156 -8.14312 0 13.7898 -8.14942 0 13.7642 -8.15578 0 
13.7386 -8.16219 0 13.7132 -8.16864 0 13.6878 -8.17513 0 
13.6626 -8.18166 0 13.6375 -8.18822 0 13.6125 -8.19482 0 
13.5877 -8.20144 0 13.5629 -8.2081 0 13.5383 -8.21479 0 
13.5138 -8.22149 0 13.4894 -8.22823 0 13.4651 -8.23499 0 
13.4409 -8.24176 0 13.4168 -8.24856 0 13.3929 -8.25536 0 
13.3691 -8.26219 0 13.3453 -8.26902 0 13.3218 -8.27586 0 
13.2983 -8.28272 0 13.275 -8.28957 0 13.2517 -8.29643 0 
13.2286 -8.30331 0 13.2056 -8.31018 0 13.1827 -8.31706 0 
13.1599 -8.32393 0 13.1373 -8.3308 0 13.1148 -8.33767 0 
13.0924 -8.34453 0 13.07 -8.3514 0 13.0479 -8.35825 0 
13.0258 -8.36509 0 13.0039 -8.37192 0 12.9821 -8.37874 0 
12.9604 -8.38555 0 12.9388 -8.39235 0 12.9173 -8.39914 0 
12.896 -8.40591 0 12.8748 -8.41267 0 12.8537 -8.4194 0 
12.8327 -8.42612 0 12.8119 -8.43282 0 12.7911 -8.43949 0 
12.7705 -8.44615 0 12.75 -8.4528 0 12.7296 -8.45941 0 
12.7093 -8.466 0 12.6891 -8.47257 0 12.6691 -8.47911 0 
12.6492 -8.48562 0 12.6294 -8.49211 0 12.6097 -8.49857 0 
12.5902 -8.505 0 12.5707 -8.5114 0 12.5514 -8.51778 0 
12.5322 -8.52412 0 12.5131 -8.53043 0 12.4941 -8.53672 0 
12.4752 -8.54296 0 12.4565 -8.54918 0 12.4379 -8.55536 0 
12.4194 -8.5615 0 12.401 -8.56761 0 12.3827 -8.57368 0 
12.3646 -8.57972 0 12.3465 -8.58573 0 12.3286 -8.59169 0 
12.3108 -8.59762 0 12.2931 -8.60351 0 12.2755 -8.60935 0 
12.258 -8.61517 0 12.2407 -8.62094 0 12.2235 -8.62667 0 
12.2064 -8.63236 0 12.1894 -8.63801 0 12.1725 -8.64361 0 
12.1557 -8.64918 0 12.1391 -8.6547 0 12.1225 -8.66018 0 
12.1061 -8.66561 0 12.0898 -8.67101 0 12.0736 -8.67636 0 
12.0575 -8.68167 0 12.0416 -8.68691 0 12.0257 -8.69213 0 
12.01 -8.6973 0 11.9944 -8.70242 0 11.9788 -8.70749 0 
11.9634 -8.71253 0 11.9481 -8.71751 0 11.933 -8.72245 0 
11.9179 -8.72734 0 11.9029 -8.73218 0 11.8881 -8.73696 0 
11.8734 -8.7417 0 11.8588 -8.7464 0 11.8442 -8.75105 0 
11.8299 -8.75565 0 11.8156 -8.7602 0 11.8014 -8.7647 0 
11.7873 -8.76915 0 11.7733 -8.77356 0 11.7595 -8.77791 0 
11.7458 -8.7822 0 11.7322 -8.78644 0 11.7187 -8.79064 0 
11.7052 -8.79479 0 11.6919 -8.79889 0 11.6787 -8.80293 0 
11.6657 -8.80692 0 11.6527 -8.81086 0 11.6398 -8.81475 0 
11.627 -8.81859 0 11.6144 -8.82238 0 11.6019 -8.82609 0 
11.5894 -8.82977 0 11.5771 -8.8334 0 11.5649 -8.83698 0 
11.5527 -8.8405 0 11.5407 -8.84397 0 11.5288 -8.84739 0 
11.517 -8.85075 0 11.5053 -8.85406 0 11.4937 -8.85731 0 
11.4822 -8.86052 0 11.4709 -8.86365 0 11.4596 -8.86675 0 
11.4484 -8.86979 0 11.4373 -8.87278 0 11.4264 -8.8757 0 
11.4155 -8.87858 0 11.4047 -8.8814 0 11.3941 -8.88418 0 
11.3835 -8.88689 0 11.3731 -8.88955 0 11.3628 -8.89214 0 
11.3525 -8.89469 0 11.3423 -8.89719 0 11.3323 -8.89963 0 
11.3223 -8.90202 0 11.3125 -8.90435 0 11.3028 -8.90663 0 
11.2931 -8.90886 0 11.2835 -8.91103 0 11.2741 -8.91313 0 
11.2648 -8.91519 0 11.2556 -8.91718 0 11.2464 -8.91912 0 
11.2374 -8.92102 0 11.2284 -8.92286 0 11.2196 -8.92464 0 
11.2108 -8.92636 0 11.2021 -8.92804 0 11.1936 -8.92965 0 
11.1851 -8.93122 0 11.1768 -8.93272 0 11.1686 -8.93416 0 
11.1604 -8.93556 0 11.1523 -8.9369 0 11.1443 -8.93819 0 
11.1364 -8.93941 0 11.1286 -8.94059 0 11.1209 -8.94172 0 
11.1133 -8.94278 0 11.1059 -8.94379 0 11.0984 -8.94474 0 
11.0912 -8.94563 0 11.0839 -8.94648 0 11.0768 -8.94727 0 
11.0698 -8.948 0 11.0628 -8.94869 0 11.056 -8.94932 0 
11.0492 -8.94988 0 11.0426 -8.9504 0 11.036 -8.95086 0 
11.0295 -8.95128 0 11.0231 -8.95163 0 11.0169 -8.95191 0 
11.0107 -8.95216 0 11.0045 -8.95235 0 10.9985 -8.95248 0 
10.9926 -8.95256 0 10.9867 -8.95259 0 10.981 -8.95257 0 
10.9753 -8.95249 0 10.9697 -8.95235 0 10.9642 -8.95216 0 
10.9589 -8.9519 0 10.9536 -8.9516 0 10.9483 -8.95126 0 
10.9432 -8.95085 0 10.9382 -8.9504 0 10.9332 -8.94988 0 
10.9283 -8.94932 0 10.9235 -8.9487 0 10.9188 -8.94803 0 
10.9142 -8.94731 0 10.9097 -8.94652 0 10.9053 -8.94569 0 
10.9009 -8.94481 0 10.8966 -8.94387 0 10.8924 -8.94289 0 
10.8883 -8.94184 0 10.8843 -8.94075 0 10.8803 -8.93961 0 
10.8764 -8.93841 0 10.8727 -8.93717 0 10.869 -8.93587 0 
10.8654 -8.93449 0 10.8619 -8.93309 0 10.8584 -8.93163 0 
10.8551 -8.93012 0 10.8518 -8.92857 0 10.8486 -8.92696 0 
10.8454 -8.9253 0 10.8424 -8.92358 0 10.8394 -8.92182 0 
10.8365 -8.92 0 10.8338 -8.91812 0 10.8311 -8.9162 0 
10.8284 -8.91424 0 10.8258 -8.91222 0 10.8233 -8.91016 0 
10.8209 -8.90804 0 10.8186 -8.90587 0 10.8163 -8.90366 0 
10.8142 -8.90139 0 10.812 -8.89908 0 10.81 -8.89671 0 
10.8081 -8.89428 0 10.8062 -8.89181 0 10.8044 -8.8893 0 
10.8027 -8.88674 0 10.8011 -8.88413 0 10.7995 -8.88148 0 
10.798 -8.87877 0 10.7965 -8.87601 0 10.7952 -8.87321 0 
10.7939 -8.87036 0 10.7927 -8.86744 0 10.7916 -8.8645 0 
10.7905 -8.8615 0 10.7895 -8.85846 0 10.7886 -8.85537 0 
10.7878 -8.85224 0 10.787 -8.84906 0 10.7863 -8.84583 0 
10.7856 -8.84255 0 10.785 -8.83923 0 10.7845 -8.83586 0 
10.7842 -8.83243 0 10.7838 -8.82897 0 10.7835 -8.82546 0 
10.7833 -8.82191 0 10.7832 -8.81832 0 10.7831 -8.81467 0 
10.783 -8.81099 0 10.7831 -8.80726 0 10.7832 -8.80348 0 
10.7834 -8.79966 0 10.7837 -8.79577 0 10.784 -8.79186 0 
10.7844 -8.78791 0 10.7848 -8.78391 0 10.7854 -8.77987 0 
10.7859 -8.77579 0 10.7866 -8.77166 0 10.7873 -8.76749 0 
10.7881 -8.76327 0 10.7889 -8.75902 0 10.7898 -8.7547 0 
10.7908 -8.75035 0 10.7918 -8.74597 0 10.7929 -8.74155 0 
10.794 -8.73708 0 10.7952 -8.73257 0 10.7965 -8.72802 0 
10.7978 -8.72342 0 10.7992 -8.71879 0 10.8007 -8.71412 0 
10.8022 -8.7094 0 10.8038 -8.70462 0 10.8055 -8.69982 0 
10.8071 -8.69499 0 10.8089 -8.69011 0 10.8107 -8.68519 0 
10.8126 -8.68024 0 10.8145 -8.67524 0 10.8164 -8.67021 0 
10.8185 -8.66514 0 10.8206 -8.66002 0 10.8228 -8.65485 0 
10.825 -8.64966 0 10.8273 -8.64443 0 10.8296 -8.63916 0 
10.832 -8.63386 0 10.8344 -8.62852 0 10.8369 -8.62313 0 
10.8394 -8.61772 0 10.842 -8.61226 0 10.8446 -8.60677 0 
10.8473 -8.60124 0 10.8501 -8.59566 0 10.8529 -8.59006 0 
10.8558 -8.58442 0 10.8587 -8.57875 0 10.8617 -8.57304 0 
10.8647 -8.5673 0 10.8678 -8.56152 0 10.8709 -8.5557 0 
10.874 -8.54985 0 10.8772 -8.54397 0 10.8806 -8.53802 0 
10.8839 -8.53207 0 10.8873 -8.52608 0 10.8907 -8.52006 0 
10.8941 -8.51401 0 10.8976 -8.50792 0 10.9012 -8.5018 0 
10.9048 -8.49565 0 10.9084 -8.48946 0 10.9121 -8.48324 0 
10.9159 -8.47696 0 10.9197 -8.47067 0 10.9236 -8.46436 0 
10.9275 -8.458 0 10.9314 -8.45163 0 10.9353 -8.44521 0 
10.9394 -8.43877 0 10.9434 -8.4323 0 10.9475 -8.42579 0 
10.9517 -8.41926 0 10.9559 -8.41269 0 10.9602 -8.40606 0 
10.9645 -8.39944 0 10.9688 -8.39278 0 10.9731 -8.3861 0 
10.9776 -8.37938 0 10.982 -8.37263 0 10.9865 -8.36586 0 
10.991 -8.35906 0 10.9956 -8.35223 0 11.0002 -8.34537 0 
11.0049 -8.33845 0 11.0096 -8.33154 0 11.0143 -8.32459 0 
11.0191 -8.31762 0 11.0239 -8.31062 0 11.0288 -8.3036 0 
11.0337 -8.29655 0 11.0386 -8.28946 0 11.0435 -8.28236 0 
11.0485 -8.27523 0 11.0536 -8.26807 0 11.0587 -8.26086 0 
11.0638 -8.25365 0 11.069 -8.24641 0 11.0742 -8.23915 0 
11.0794 -8.23186 0 11.0846 -8.22455 0 11.0899 -8.21722 0 
11.0952 -8.20986 0 11.1006 -8.20248 0 11.106 -8.19507 0 
11.1114 -8.18761 0 11.1169 -8.18015 0 11.1224 -8.17267 0 
11.1279 -8.16517 0 11.1335 -8.15764 0 11.1391 -8.15009 0 
11.1447 -8.14252 0 11.1503 -8.13493 0 11.156 -8.12731 0 
11.1617 -8.11968 0 11.1675 -8.11202 0 11.1733 -8.10431 0 
11.1791 -8.09661 0 11.1849 -8.08888 0 11.1908 -8.08114 0 
11.1967 -8.07337 0 11.2026 -8.06559 0 11.2086 -8.05778 0 
11.2146 -8.04995 0 11.2206 -8.04211 0 11.2266 -8.03424 0 
11.2327 -8.02633 0 11.2388 -8.01842 0 11.2449 -8.0105 0 
11.2511 -8.00255 0 11.2572 -7.99459 0 11.2634 -7.98661 0 
11.2697 -7.9786 0 11.2759 -7.97059 0 11.2822 -7.96255 0 
11.2885 -7.9545 0 11.2949 -7.9464 0 11.3012 -7.93831 0 
11.3076 -7.93021 0 11.314 -7.92208 0 11.3204 -7.91395 0 
11.3269 -7.90579 0 11.3333 -7.89762 0 11.3398 -7.88943 0 
11.3463 -7.88122 0 11.3529 -7.873 0 11.3594 -7.86476 0 
11.3661 -7.85648 0 11.3727 -7.84821 0 11.3793 -7.83993 0 
11.3859 -7.83164 0 11.3926 -7.82332 0 11.3993 -7.81499 0 
11.406 -7.80665 0 11.4127 -7.7983 0 11.4195 -7.78993 0 
11.4262 -7.78154 0 11.4331 -7.77312 0 11.4399 -7.76471 0 
11.4467 -7.75629 0 11.4535 -7.74785 0 11.4604 -7.7394 0 
11.4673 -7.73093 0 11.4742 -7.72246 0 11.4811 -7.71398 0 
11.488 -7.70548 0 11.4949 -7.69696 0 11.502 -7.68842 0 
11.509 -7.67988 0 11.5159 -7.67133 0 11.523 -7.66278 0 
11.53 -7.65421 0 11.537 -7.64563 0 11.5441 -7.63704 0 
11.5512 -7.62844 0 11.5582 -7.61983 0 11.5654 -7.61121 0 
11.5725 -7.60258 0 11.5797 -7.59391 0 11.5868 -7.58526 0 
11.594 -7.5766 0 11.6011 -7.56793 0 11.6083 -7.55925 0 
11.6155 -7.55056 0 11.6227 -7.54187 0 11.63 -7.53316 0 
11.6372 -7.52445 0 11.6444 -7.51573 0 11.6518 -7.50697 0 
11.659 -7.49823 0 11.6663 -7.48949 0 11.6736 -7.48073 0 
11.6809 -7.47197 0 11.6882 -7.4632 0 11.6956 -7.45443 0 
11.7029 -7.44565 0 11.7103 -7.43686 0 11.7176 -7.42807 0 
11.725 -7.41927 0 11.7324 -7.41043 0 11.7398 -7.40162 0 
11.7472 -7.39279 0 11.7546 -7.38397 0 11.762 -7.37514 0 
11.7694 -7.3663 0 11.7769 -7.35746 0 11.7843 -7.34861 0 
11.7918 -7.33976 0 11.7992 -7.3309 0 11.8067 -7.32201 0 
11.8142 -7.31315 0 11.8217 -7.30427 0 11.8292 -7.2954 0 
11.8366 -7.28652 0 11.8442 -7.27764 0 11.8517 -7.26875 0 
11.8592 -7.25986 0 11.8667 -7.25097 0 11.8742 -7.24207 0 
11.8817 -7.23317 0 11.8893 -7.22424 0 11.8969 -7.21533 0 
11.9044 -7.20642 0 11.9119 -7.19751 0 11.9195 -7.18859 0 
11.927 -7.17967 0 11.9346 -7.17075 0 11.9422 -7.16183 0 
11.9497 -7.15291 0 11.9573 -7.14398 0 11.965 -7.13503 0 
11.9725 -7.1261 0 11.9801 -7.11717 0 11.9877 -7.10825 0 
11.9953 -7.09931 0 12.0029 -7.09038 0 12.0105 -7.08144 0 
12.0181 -7.07251 0 12.0257 -7.06357 0 12.0333 -7.05464 0 
12.0409 -7.04571 0 12.0486 -7.03674 0 12.0562 -7.0278 0 
12.0638 -7.01887 0 12.0714 -7.00993 0 12.079 -7.001 0 
12.0866 -6.99207 0 12.0942 -6.98313 0 12.1019 -6.9742 0 
12.1095 -6.96527 0 12.1171 -6.95633 0 12.1248 -6.94737 0 
12.1324 -6.93844 0 12.14 -6.92952 0 12.1476 -6.92059 0 
12.1552 -6.91166 0 12.1629 -6.90274 0 12.1705 -6.89382 0 
12.1781 -6.8849 0 12.1857 -6.87599 0 12.1933 -6.86707 0 
12.201 -6.85813 0 12.2086 -6.84922 0 12.2162 -6.84031 0 
12.2238 -6.83141 0 12.2314 -6.8225 0 12.2391 -6.81361 0 
12.2467 -6.80471 0 12.2543 -6.79581 0 12.2619 -6.78693 0 
12.2695 -6.77804 0 12.2771 -6.76915 0 12.2847 -6.76025 0 
12.2923 -6.75137 0 12.2999 -6.7425 0 12.3075 -6.73363 0 
12.3151 -6.72477 0 12.3226 -6.71591 0 12.3302 -6.70705 0 
12.3378 -6.6982 0 12.3453 -6.68935 0 12.3529 -6.6805 0 
12.3605 -6.67164 0 12.3681 -6.66281 0 12.3757 -6.65398 0 
12.3832 -6.64515 0 12.3908 -6.63633 0 12.3983 -6.62752 0 
12.4058 -6.61871 0 12.4134 -6.6099 0 12.4209 -6.60111 0 
12.4284 -6.59231 0 12.436 -6.58353 0 12.4435 -6.57472 0 
12.451 -6.56594 0 12.4586 -6.55717 0 12.4661 -6.54841 0 
12.4735 -6.53965 0 12.481 -6.5309 0 12.4885 -6.52216 0 
12.496 -6.51342 0 12.5035 -6.50468 0 12.511 -6.49596 0 
12.5185 -6.48721 0 12.5259 -6.47849 0 12.5334 -6.46978 0 
12.5408 -6.46109 0 12.5483 -6.4524 0 12.5557 -6.4437 0 
12.5631 -6.43503 0 12.5705 -6.42635 0 12.578 -6.41769 0 
12.5854 -6.40903 0 12.5928 -6.40036 0 12.6002 -6.39172 0 
12.6076 -6.38308 0 12.615 -6.37446 0 12.6224 -6.36584 0 
12.6297 -6.35722 0 12.6371 -6.34862 0 12.6445 -6.34002 0 
12.6518 -6.33143 0 12.6592 -6.32285 0 12.6665 -6.31428 0 
12.6739 -6.30569 0 12.6812 -6.29713 0 12.6885 -6.28859 0 
12.6958 -6.28005 0 12.7031 -6.27151 0 12.7104 -6.263 0 
12.7177 -6.25448 0 12.7249 -6.24598 0 12.7322 -6.23748 0 
12.7394 -6.22899 0 12.7467 -6.22049 0 12.754 -6.21203 0 
12.7612 -6.20356 0 12.7684 -6.19511 0 12.7757 -6.18668 0 
12.7829 -6.17824 0 12.7901 -6.16982 0 12.7973 -6.1614 0 
12.8045 -6.153 0 12.8116 -6.1446 0 12.8188 -6.13621 0 
12.826 -6.12782 0 12.8331 -6.11945 0 12.8403 -6.1111 0 
12.8474 -6.10275 0 12.8545 -6.09441 0 12.8617 -6.08608 0 
12.8687 -6.07776 0 12.8758 -6.06946 0 12.8829 -6.06116 0 
12.89 -6.05287 0 12.8971 -6.04458 0 12.9042 -6.03631 0 
12.9112 -6.02805 0 12.9183 -6.01981 0 12.9253 -6.01157 0 
12.9323 -6.00335 0 12.9393 -5.99513 0 12.9464 -5.98693 0 
12.9533 -5.97873 0 12.9603 -5.97055 0 12.9674 -5.96235 0 
12.9743 -5.9542 0 12.9813 -5.94605 0 12.9883 -5.93791 0 
12.9952 -5.92978 0 13.0021 -5.92165 0 13.009 -5.91355 0 
13.0159 -5.90545 0 13.0228 -5.89737 0 13.0297 -5.88929 0 
13.0366 -5.88123 0 13.0435 -5.87315 0 13.0504 -5.86511 0 
13.0572 -5.85708 0 13.0641 -5.84907 0 13.0709 -5.84106 0 
13.0777 -5.83307 0 13.0846 -5.82508 0 13.0913 -5.81711 0 
13.0981 -5.80914 0 13.1049 -5.80119 0 13.1117 -5.79324 0 
13.1185 -5.78531 0 13.1253 -5.7774 0 13.132 -5.76949 0 
13.1387 -5.7616 0 13.1455 -5.75372 0 13.1522 -5.74585 0 
13.1589 -5.738 0 13.1656 -5.73015 0 13.1722 -5.72232 0 
13.1789 -5.7145 0 13.1856 -5.70667 0 13.1923 -5.69887 0 
13.1989 -5.69109 0 13.2055 -5.68332 0 13.2122 -5.67555 0 
13.2188 -5.66781 0 13.2254 -5.66008 0 13.232 -5.65235 0 
13.2385 -5.64464 0 13.2451 -5.63694 0 13.2517 -5.62923 0 
13.2583 -5.62155 0 13.2648 -5.61389 0 13.2713 -5.60624 0 
13.2779 -5.59861 0 13.2844 -5.59098 0 13.2909 -5.58336 0 
13.2974 -5.57577 0 13.3038 -5.56818 0 13.3103 -5.5606 0 
13.3168 -5.55302 0 13.3232 -5.54546 0 13.3297 -5.53793 0 
13.3361 -5.5304 0 13.3425 -5.52289 0 13.3489 -5.51539 0 
13.3553 -5.5079 0 13.3617 -5.50043 0 13.3681 -5.49296 0 
13.3745 -5.48551 0 13.3808 -5.47807 0 13.3872 -5.47063 0 
13.3935 -5.46322 0 13.3998 -5.45581 0 13.4062 -5.44843 0 
13.4125 -5.44106 0 13.4188 -5.4337 0 13.4251 -5.42636 0 
13.4313 -5.41901 0 13.4376 -5.41169 0 13.4438 -5.40439 0 
13.4501 -5.39707 0 13.4563 -5.38979 0 13.4626 -5.38252 0 
13.4688 -5.37527 0 13.475 -5.36801 0 13.4812 -5.36079 0 
13.4874 -5.35357 0 13.4935 -5.34636 0 13.4997 -5.33916 0 
13.5058 -5.33198 0 13.512 -5.32482 0 13.5181 -5.31767 0 
13.5243 -5.31052 0 13.5304 -5.30339 0 13.5365 -5.29628 0 
13.5426 -5.28918 0 13.5487 -5.28209 0 13.5547 -5.27501 0 
13.5608 -5.26794 0 13.5668 -5.2609 0 13.5729 -5.25387 0 
13.5789 -5.24684 0 13.5849 -5.23982 0 13.591 -5.23284 0 
13.597 -5.22585 0 13.603 -5.21888 0 13.6089 -5.21192 0 
13.6149 -5.20498 0 13.6209 -5.19805 0 13.6268 -5.19113 0 
13.6328 -5.18422 0 13.6387 -5.17733 0 13.6446 -5.17046 0 
13.6506 -5.16359 0 13.6565 -5.15674 0 13.6624 -5.1499 0 
13.6683 -5.14308 0 13.6741 -5.13626 0 13.68 -5.12946 0 
13.6859 -5.12268 0 13.6917 -5.11591 0 13.6976 -5.10916 0 
13.7034 -5.10241 0 13.7092 -5.09568 0 13.715 -5.08896 0 
13.7208 -5.08226 0 13.7266 -5.07557 0 13.7324 -5.06889 0 
13.7381 -5.06222 0 13.7439 -5.05557 0 13.7497 -5.04893 0 
13.7554 -5.0423 0 13.7612 -5.0357 0 13.7669 -5.0291 0 
13.7726 -5.02251 0 13.7783 -5.01594 0 13.784 -5.00938 0 
13.7897 -5.00283 0 13.7954 -4.9963 0 13.8011 -4.98979 0 
13.8067 -4.98328 0 13.8124 -4.97679 0 13.818 -4.97031 0 
13.8236 -4.96385 0 13.8293 -4.9574 0 13.8349 -4.95096 0 
13.8405 -4.94453 0 13.8461 -4.93812 0 13.8517 -4.93173 0 
13.8573 -4.92534 0 13.8628 -4.91897 0 13.8684 -4.91261 0 
13.874 -4.90626 0 13.8795 -4.89994 0 13.8851 -4.89361 0 
13.8906 -4.88731 0 13.8961 -4.88101 0 13.9016 -4.87473 0 
13.9071 -4.86847 0 13.9126 -4.86222 0 13.9181 -4.85598 0 
13.9236 -4.84975 0 13.9291 -4.84354 0 13.9345 -4.83734 0 
13.94 -4.83116 0 13.9454 -4.82499 0 13.9509 -4.81883 0 
13.9563 -4.81268 0 13.9617 -4.80654 0 13.9671 -4.80043 0 
13.9725 -4.79432 0 13.9779 -4.78823 0 13.9833 -4.78214 0 
13.9887 -4.77608 0 13.9941 -4.77002 0 13.9994 -4.76399 0 
14.0048 -4.75796 0 14.0101 -4.75194 0 14.0155 -4.74594 0 
14.0208 -4.73996 0 14.0261 -4.73398 0 14.0315 -4.72802 0 
14.0368 -4.72208 0 14.0421 -4.71613 0 14.0474 -4.71021 0 
14.0527 -4.7043 0 14.058 -4.69841 0 14.0632 -4.69252 0 
14.0685 -4.68666 0 14.0737 -4.6808 0 14.079 -4.67495 0 
14.0842 -4.66912 0 14.0894 -4.6633 0 14.0947 -4.6575 0 
14.0999 -4.65171 0 14.1051 -4.64593 0 14.1103 -4.64016 0 
14.1155 -4.63441 0 14.1207 -4.62866 0 14.1259 -4.62294 0 
14.1311 -4.61723 0 14.1362 -4.61153 0 14.1414 -4.60584 0 
14.1466 -4.60017 0 14.1517 -4.5945 0 14.1569 -4.58885 0 
14.162 -4.58322 0 14.1671 -4.57759 0 14.1722 -4.57198 0 
14.1774 -4.56638 0 14.1825 -4.5608 0 14.1876 -4.55523 0 
14.1927 -4.54967 0 14.1978 -4.54412 0 14.2028 -4.53858 0 
14.2079 -4.53306 0 14.213 -4.52755 0 14.2181 -4.52206 0 
14.2231 -4.51657 0 14.2282 -4.5111 0 14.2332 -4.50565 0 
14.2382 -4.5002 0 14.2433 -4.49477 0 14.2483 -4.48935 0 
14.2533 -4.48394 0 14.2583 -4.47854 0 14.2633 -4.47316 0 
14.2683 -4.4678 0 14.2733 -4.46244 0 14.2783 -4.4571 0 
14.2833 -4.45176 0 14.2883 -4.44645 0 14.2933 -4.44114 0 
14.2982 -4.43584 0 14.3032 -4.43056 0 14.3081 -4.42529 0 
14.3131 -4.42004 0 14.318 -4.41479 0 14.323 -4.40956 0 
14.3279 -4.40434 0 14.3328 -4.39913 0 14.3377 -4.39393 0 
14.3427 -4.38875 0 14.3476 -4.38358 0 14.3525 -4.37843 0 
14.3574 -4.37328 0 14.3623 -4.36815 0 14.3672 -4.36303 0 
14.372 -4.35792 0 14.3769 -4.35283 0 14.3818 -4.34774 0 
14.3867 -4.34267 0 14.3915 -4.33761 0 14.3964 -4.33256 0 
14.4012 -4.32753 0 14.4061 -4.32251 0 14.4109 -4.31749 0 
14.4158 -4.31249 0 14.4206 -4.30751 0 14.4254 -4.30254 0 
14.4303 -4.29758 0 14.4351 -4.29262 0 14.4399 -4.28769 0 
14.4447 -4.28276 0 14.4495 -4.27785 0 14.4543 -4.27295 0 
14.4591 -4.26806 0 14.4639 -4.26318 0 14.4687 -4.25831 0 
14.4735 -4.25346 0 14.4782 -4.24861 0 14.483 -4.24378 0 
14.4878 -4.23897 0 14.4926 -4.23416 0 14.4973 -4.22937 0 
14.5021 -4.22459 0 14.5068 -4.21982 0 14.5116 -4.21506 0 
14.5163 -4.21031 0 14.5211 -4.20557 0 14.5258 -4.20085 0 
14.5305 -4.19614 0 14.5353 -4.19144 0 14.54 -4.18675 0 
14.5447 -4.18207 0 14.5494 -4.1774 0 14.5542 -4.17275 0 
14.5589 -4.16811 0 14.5636 -4.16348 0 14.5683 -4.15886 0 
14.573 -4.15426 0 14.5777 -4.14966 0 14.5824 -4.14508 0 
14.587 -4.1405 0 14.5917 -4.13594 0 14.5964 -4.13139 0 