# vtk DataFile Version 3.0
vtk output
ASCII
DATASET POLYDATA
POINTS 5000 float
2.66459 -31.3923 0 5.96909 -31.2737 0 7.34215 -31.2126 0 
8.39643 -31.1612 0 9.28531 -31.1151 0 10.0682 -31.0725 0 
10.7756 -31.0323 0 11.4258 -30.9941 0 12.0304 -30.9574 0 
12.5978 -30.9221 0 13.1339 -30.8879 0 13.6433 -30.8547 0 
14.1296 -30.8224 0 14.5953 -30.7908 0 15.043 -30.7599 0 
15.4744 -30.7296 0 15.891 -30.6998 0 16.2943 -30.6707 0 
16.6855 -30.642 0 17.0653 -30.6138 0 17.4348 -30.586 0 
17.7947 -30.5585 0 18.1456 -30.5315 0 18.4881 -30.5048 0 
18.8228 -30.4784 0 19.1501 -30.4523 0 19.4704 -30.4265 0 
19.7842 -30.401 0 20.0917 -30.3757 0 20.3934 -30.3507 0 
20.6895 -30.3259 0 20.9802 -30.3014 0 21.2659 -30.2771 0 
21.5467 -30.2529 0 21.8228 -30.229 0 22.0945 -30.2053 0 
22.3619 -30.1817 0 22.6254 -30.1582 0 22.8848 -30.1349 0 
23.1404 -30.1119 0 23.3925 -30.0889 0 23.6409 -30.0661 0 
23.8861 -30.0435 0 24.1279 -30.0209 0 24.3666 -29.9985 0 
24.6023 -29.9763 0 24.8349 -29.9541 0 25.0648 -29.932 0 
25.2918 -29.91 0 25.5161 -29.8882 0 25.7379 -29.8664 0 
25.9571 -29.8448 0 26.1739 -29.8232 0 26.3882 -29.8017 0 
26.6002 -29.7804 0 26.8099 -29.7591 0 27.0175 -29.7378 0 
27.2229 -29.7167 0 27.4262 -29.6955 0 27.6275 -29.6745 0 
27.8267 -29.6535 0 28.0241 -29.6327 0 28.2196 -29.6118 0 
28.4131 -29.5911 0 28.6049 -29.5704 0 28.7949 -29.5497 0 
28.9832 -29.5291 0 29.1698 -29.5086 0 29.3547 -29.488 0 
29.538 -29.4675 0 29.7198 -29.4471 0 29.9 -29.4267 0 
30.0786 -29.4064 0 30.2558 -29.3861 0 30.4315 -29.3659 0 
30.6058 -29.3456 0 30.7788 -29.3254 0 30.9503 -29.3053 0 
31.1205 -29.2852 0 31.2893 -29.265 0 31.4569 -29.2449 0 
31.6233 -29.2248 0 31.7884 -29.2048 0 31.9522 -29.1848 0 
32.1148 -29.1648 0 32.2763 -29.1449 0 32.4365 -29.1249 0 
32.5956 -29.105 0 32.7537 -29.0851 0 32.9106 -29.0651 0 
33.0665 -29.0453 0 33.2212 -29.0254 0 33.375 -29.0056 0 
33.5277 -28.9857 0 33.6793 -28.9659 0 33.83 -28.9461 0 
33.9797 -28.9263 0 34.1284 -28.9065 0 34.2761 -28.8867 0 
34.423 -28.8668 0 34.5689 -28.847 0 34.7139 -28.8273 0 
34.858 -28.8075 0 35.0012 -28.7877 0 35.1435 -28.768 0 
35.2851 -28.7482 0 35.4257 -28.7284 0 35.5655 -28.7087 0 
35.7045 -28.6889 0 35.8427 -28.6691 0 35.9801 -28.6493 0 
36.1166 -28.6295 0 36.2524 -28.6097 0 36.3875 -28.59 0 
36.5218 -28.5702 0 36.6553 -28.5504 0 36.7882 -28.5306 0 
36.9203 -28.5108 0 37.0516 -28.491 0 37.1822 -28.4712 0 
37.3122 -28.4513 0 37.4415 -28.4315 0 37.5701 -28.4116 0 
37.698 -28.3918 0 37.8252 -28.3719 0 37.9518 -28.3521 0 
38.0778 -28.3322 0 38.2031 -28.3123 0 38.3277 -28.2924 0 
38.4518 -28.2726 0 38.5752 -28.2526 0 38.698 -28.2326 0 
38.8202 -28.2127 0 38.9418 -28.1927 0 39.0629 -28.1728 0 
39.1834 -28.1528 0 39.3032 -28.1328 0 39.4225 -28.1128 0 
39.5412 -28.0928 0 39.6594 -28.0728 0 39.777 -28.0527 0 
39.8941 -28.0326 0 40.0107 -28.0125 0 40.1267 -27.9924 0 
40.2422 -27.9723 0 40.3572 -27.9522 0 40.4716 -27.932 0 
40.5856 -27.9119 0 40.699 -27.8917 0 40.8119 -27.8715 0 
40.9243 -27.8513 0 41.0363 -27.831 0 41.1477 -27.8107 0 
41.2588 -27.7905 0 41.3693 -27.7702 0 41.4793 -27.7499 0 
41.5888 -27.7296 0 41.698 -27.7092 0 41.8066 -27.6889 0 
41.9148 -27.6685 0 42.0227 -27.6481 0 42.13 -27.6277 0 
42.2369 -27.6072 0 42.3433 -27.5867 0 42.4493 -27.5663 0 
42.5549 -27.5458 0 42.6601 -27.5253 0 42.7649 -27.5048 0 
42.8691 -27.4842 0 42.9731 -27.4636 0 43.0766 -27.4431 0 
43.1798 -27.4224 0 43.2825 -27.4017 0 43.3847 -27.3811 0 
43.4867 -27.3604 0 43.5883 -27.3397 0 43.6895 -27.319 0 
43.7902 -27.2983 0 43.8906 -27.2775 0 43.9906 -27.2567 0 
44.0903 -27.2359 0 44.1896 -27.2151 0 44.2885 -27.1943 0 
44.387 -27.1733 0 44.4852 -27.1524 0 44.5831 -27.1315 0 
44.6805 -27.1106 0 44.7777 -27.0897 0 44.8745 -27.0687 0 
44.971 -27.0477 0 45.0671 -27.0267 0 45.1628 -27.0057 0 
45.2582 -26.9846 0 45.3534 -26.9634 0 45.4481 -26.9423 0 
45.5426 -26.9212 0 45.6367 -26.9001 0 45.7305 -26.8789 0 
45.824 -26.8577 0 45.9171 -26.8365 0 46.0099 -26.8153 0 
46.1025 -26.794 0 46.1947 -26.7727 0 46.2866 -26.7514 0 
46.3783 -26.73 0 46.4696 -26.7087 0 46.5605 -26.6873 0 
46.6513 -26.6659 0 46.7416 -26.6445 0 46.8318 -26.6231 0 
46.9216 -26.6016 0 47.0112 -26.5801 0 47.1004 -26.5586 0 
47.1894 -26.5371 0 47.278 -26.5155 0 47.3664 -26.4939 0 
47.4546 -26.4723 0 47.5423 -26.4507 0 47.6299 -26.4291 0 
47.7172 -26.4074 0 47.8043 -26.3858 0 47.891 -26.3641 0 
47.9775 -26.3423 0 48.0637 -26.3206 0 48.1497 -26.2987 0 
48.2353 -26.2769 0 48.3208 -26.2551 0 48.406 -26.2333 0 
48.4908 -26.2115 0 48.5755 -26.1896 0 48.66 -26.1677 0 
48.7441 -26.1458 0 48.828 -26.1238 0 48.9117 -26.1019 0 
48.9951 -26.0799 0 49.0783 -26.0578 0 49.1612 -26.0358 0 
49.2439 -26.0137 0 49.3263 -25.9916 0 49.4085 -25.9696 0 
49.4904 -25.9474 0 49.5722 -25.9253 0 49.6537 -25.9032 0 
49.7349 -25.881 0 49.816 -25.8588 0 49.8967 -25.8365 0 
49.9773 -25.8142 0 50.0576 -25.792 0 50.1378 -25.7697 0 
50.2177 -25.7474 0 50.2973 -25.7251 0 50.3768 -25.7027 0 
50.456 -25.6803 0 50.535 -25.658 0 50.6138 -25.6356 0 
50.6924 -25.6131 0 50.7708 -25.5906 0 50.8489 -25.5681 0 
50.9269 -25.5456 0 51.0046 -25.5231 0 51.0821 -25.5006 0 
51.1594 -25.478 0 51.2365 -25.4555 0 51.3134 -25.4329 0 
51.3901 -25.4103 0 51.4666 -25.3876 0 51.5429 -25.3649 0 
51.619 -25.3422 0 51.6949 -25.3195 0 51.7705 -25.2968 0 
51.846 -25.2741 0 51.9213 -25.2513 0 51.9964 -25.2285 0 
52.0713 -25.2057 0 52.146 -25.1829 0 52.2205 -25.1601 0 
52.2948 -25.1373 0 52.369 -25.1143 0 52.4429 -25.0914 0 
52.5166 -25.0685 0 52.5902 -25.0456 0 52.6636 -25.0226 0 
52.7367 -24.9997 0 52.8098 -24.9767 0 52.8826 -24.9537 0 
52.9552 -24.9306 0 53.0277 -24.9076 0 53.0999 -24.8844 0 
53.1721 -24.8614 0 53.2439 -24.8383 0 53.3157 -24.8152 0 
53.3872 -24.792 0 53.4586 -24.7689 0 53.5299 -24.7457 0 
53.6009 -24.7225 0 53.6717 -24.6993 0 53.7424 -24.6761 0 
53.8129 -24.6527 0 53.8833 -24.6295 0 53.9535 -24.6062 0 
54.0234 -24.5829 0 54.0933 -24.5596 0 54.163 -24.5363 0 
54.2324 -24.5129 0 54.3017 -24.4896 0 54.3709 -24.4662 0 
54.4399 -24.4428 0 54.5087 -24.4194 0 54.5774 -24.3958 0 
54.646 -24.3724 0 54.7143 -24.3489 0 54.7825 -24.3254 0 
54.8505 -24.3019 0 54.9184 -24.2784 0 54.9861 -24.2549 0 
55.0537 -24.2313 0 55.121 -24.2077 0 55.1883 -24.1841 0 
55.2554 -24.1604 0 55.3223 -24.1368 0 55.3891 -24.1132 0 
55.4557 -24.0895 0 55.5222 -24.0659 0 55.5884 -24.0422 0 
55.6546 -24.0185 0 55.7206 -23.9948 0 55.7864 -23.971 0 
55.8522 -23.9473 0 55.9177 -23.9234 0 55.9831 -23.8996 0 
56.0484 -23.8759 0 56.1135 -23.852 0 56.1786 -23.8282 0 
56.2433 -23.8044 0 56.308 -23.7805 0 56.3725 -23.7567 0 
56.4369 -23.7328 0 56.5012 -23.7089 0 56.5653 -23.685 0 
56.6293 -23.6609 0 56.693 -23.637 0 56.7567 -23.613 0 
56.8202 -23.589 0 56.8836 -23.5651 0 56.9469 -23.541 0 
57.01 -23.517 0 57.073 -23.493 0 57.1358 -23.469 0 
57.1985 -23.4449 0 57.261 -23.4207 0 57.3235 -23.3966 0 
57.3858 -23.3725 0 57.4479 -23.3484 0 57.51 -23.3243 0 
57.5718 -23.3001 0 57.6336 -23.276 0 57.6952 -23.2518 0 
57.7567 -23.2276 0 57.818 -23.2034 0 57.8792 -23.1792 0 
57.9404 -23.1549 0 58.0013 -23.1306 0 58.0621 -23.1064 0 
58.1228 -23.0821 0 58.1834 -23.0579 0 58.2439 -23.0336 0 
58.3042 -23.0093 0 58.3643 -22.9849 0 58.4244 -22.9606 0 
58.4843 -22.9363 0 58.5441 -22.9118 0 58.6038 -22.8875 0 
58.6633 -22.8631 0 58.7228 -22.8387 0 58.782 -22.8143 0 
58.8412 -22.7899 0 58.9003 -22.7654 0 58.9592 -22.741 0 
59.018 -22.7165 0 59.0767 -22.6921 0 59.1353 -22.6676 0 
59.1936 -22.643 0 59.252 -22.6185 0 59.3102 -22.594 0 
59.3682 -22.5695 0 59.4261 -22.545 0 59.484 -22.5204 0 
59.5417 -22.4959 0 59.5993 -22.4713 0 59.6568 -22.4467 0 
59.7141 -22.4221 0 59.7714 -22.3974 0 59.8285 -22.3728 0 
59.8855 -22.3482 0 59.9424 -22.3235 0 59.9991 -22.2989 0 
60.0558 -22.2742 0 60.1123 -22.2496 0 60.1688 -22.2249 0 
60.225 -22.2002 0 60.2813 -22.1755 0 60.3374 -22.1507 0 
60.3933 -22.126 0 60.4492 -22.1013 0 60.5049 -22.0765 0 
60.5604 -22.0518 0 60.616 -22.027 0 60.6714 -22.0022 0 
60.7267 -21.9775 0 60.7819 -21.9527 0 60.8369 -21.9279 0 
60.8918 -21.9031 0 60.9467 -21.8781 0 61.0014 -21.8533 0 
61.056 -21.8285 0 61.1105 -21.8036 0 61.1649 -21.7788 0 
61.2192 -21.7539 0 61.2734 -21.729 0 61.3275 -21.7042 0 
61.3815 -21.6793 0 61.4353 -21.6544 0 61.4891 -21.6293 0 
61.5427 -21.6044 0 61.5962 -21.5795 0 61.6497 -21.5546 0 
61.703 -21.5296 0 61.7562 -21.5047 0 61.8093 -21.4797 0 
61.8624 -21.4547 0 61.9152 -21.4297 0 61.968 -21.4047 0 
62.0208 -21.3798 0 62.0733 -21.3546 0 62.1258 -21.3296 0 
62.1782 -21.3046 0 62.2305 -21.2796 0 62.2826 -21.2545 0 
62.3347 -21.2295 0 62.3867 -21.2044 0 62.4385 -21.1794 0 
62.4903 -21.1543 0 62.542 -21.1292 0 62.5935 -21.104 0 
62.645 -21.0789 0 62.6963 -21.0538 0 62.7476 -21.0287 0 
62.7988 -21.0036 0 62.8498 -20.9785 0 62.9007 -20.9534 0 
62.9516 -20.9282 0 63.0023 -20.9031 0 63.053 -20.8779 0 
63.1036 -20.8526 0 63.154 -20.8275 0 63.2044 -20.8023 0 
63.2547 -20.7771 0 63.3048 -20.7519 0 63.3549 -20.7267 0 
63.4049 -20.7015 0 63.4548 -20.6763 0 63.5045 -20.6511 0 
63.5542 -20.6259 0 63.6038 -20.6007 0 63.6533 -20.5753 0 
63.7027 -20.5501 0 63.752 -20.5248 0 63.8012 -20.4996 0 
63.8502 -20.4743 0 63.8993 -20.449 0 63.9482 -20.4238 0 
63.997 -20.3985 0 64.0458 -20.3732 0 64.0944 -20.3479 0 
64.1429 -20.3225 0 64.1914 -20.2972 0 64.2397 -20.2719 0 
64.2879 -20.2466 0 64.3361 -20.2212 0 64.3842 -20.1959 0 
64.4321 -20.1706 0 64.48 -20.1452 0 64.5278 -20.1199 0 
64.5755 -20.0945 0 64.6232 -20.0692 0 64.6706 -20.0437 0 
64.718 -20.0184 0 64.7654 -19.993 0 64.8126 -19.9676 0 
64.8598 -19.9422 0 64.9069 -19.9168 0 64.9538 -19.8914 0 
65.0007 -19.866 0 65.0474 -19.8406 0 65.0941 -19.8152 0 
65.1408 -19.7897 0 65.1873 -19.7643 0 65.2337 -19.7389 0 
65.28 -19.7134 0 65.3263 -19.688 0 65.3724 -19.6626 0 
65.4185 -19.6371 0 65.4645 -19.6117 0 65.5104 -19.5862 0 
65.5562 -19.5608 0 65.602 -19.5353 0 65.6475 -19.5097 0 
65.6931 -19.4842 0 65.7385 -19.4588 0 65.784 -19.4333 0 
65.8292 -19.4078 0 65.8744 -19.3823 0 65.9195 -19.3568 0 
65.9645 -19.3313 0 66.0095 -19.3058 0 66.0543 -19.2803 0 
66.099 -19.2547 0 66.1437 -19.2292 0 66.1883 -19.2037 0 
[...]
POINT_DATA 5000
VECTORS velocity double
12.9943 -7.15156 0 13.4262 -6.65376 0 13.632 -6.45458 0 
13.797 -6.30661 0 13.9395 -6.18598 0 14.0667 -6.08333 0 
14.1822 -5.99384 0 14.2885 -5.91452 0 14.387 -5.84347 0 
14.4788 -5.77935 0 14.5648 -5.72116 0 14.6456 -5.66811 0 
14.7217 -5.61961 0 14.7934 -5.57518 0 14.8612 -5.5344 0 
14.9253 -5.49695 0 14.986 -5.46259 0 15.0435 -5.43099 0 
15.0979 -5.40197 0 15.1495 -5.37535 0 15.1985 -5.35097 0 
15.2448 -5.32868 0 15.2887 -5.30834 0 15.3303 -5.28985 0 
15.3697 -5.27308 0 15.4069 -5.25795 0 15.4421 -5.24441 0 
15.4753 -5.2323 0 15.5066 -5.22157 0 15.5362 -5.21216 0 
15.564 -5.20402 0 15.59 -5.19706 0 15.6145 -5.19124 0 
15.6374 -5.18652 0 15.6588 -5.18283 0 15.6787 -5.18013 0 
15.6972 -5.17838 0 15.7143 -5.17756 0 15.7301 -5.17759 0 
15.7446 -5.17845 0 15.7579 -5.18011 0 15.7699 -5.18253 0 
15.7808 -5.18568 0 15.7905 -5.18954 0 15.7991 -5.19407 0 
15.8066 -5.19926 0 15.8131 -5.20506 0 15.8185 -5.21149 0 
15.823 -5.21847 0 15.8265 -5.226 0 15.8291 -5.23407 0 
15.8307 -5.24264 0 15.8315 -5.25171 0 15.8314 -5.26125 0 
15.8305 -5.27124 0 15.8287 -5.28167 0 15.8261 -5.29251 0 
15.8228 -5.30376 0 15.8187 -5.31542 0 15.8139 -5.32743 0 
15.8084 -5.3398 0 15.8021 -5.35251 0 15.7952 -5.36556 0 
15.7877 -5.37892 0 15.7794 -5.39259 0 15.7706 -5.40655 0 
15.7611 -5.42079 0 15.7511 -5.4353 0 15.7404 -5.45009 0 
15.7292 -5.46511 0 15.7175 -5.48037 0 15.7052 -5.49585 0 
15.6923 -5.51155 0 15.679 -5.52747 0 15.6652 -5.54358 0 
15.6509 -5.55988 0 15.6361 -5.57638 0 15.6208 -5.59304 0 
15.6051 -5.60987 0 15.589 -5.62687 0 15.5724 -5.64401 0 
15.5554 -5.6613 0 15.538 -5.67873 0 15.5202 -5.69628 0 
15.502 -5.71396 0 15.4835 -5.73176 0 15.4646 -5.74967 0 
15.4453 -5.76768 0 15.4256 -5.78579 0 15.4057 -5.80401 0 
15.3854 -5.82231 0 15.3648 -5.84068 0 15.3439 -5.85914 0 
15.3226 -5.87767 0 15.3011 -5.89625 0 15.2793 -5.91491 0 
15.2572 -5.93363 0 15.2348 -5.95239 0 15.2122 -5.9712 0 
15.1893 -5.99008 0 15.1662 -6.00898 0 15.1428 -6.02791 0 
15.1192 -6.04688 0 15.0953 -6.06588 0 15.0712 -6.08489 0 
15.0469 -6.10394 0 15.0224 -6.123 0 14.9977 -6.14207 0 
14.9728 -6.16114 0 14.9476 -6.18024 0 14.9223 -6.19934 0 
14.8969 -6.21843 0 14.8712 -6.23752 0 14.8454 -6.2566 0 
14.8193 -6.27568 0 14.7932 -6.29475 0 14.7668 -6.3138 0 
14.7404 -6.33284 0 14.7137 -6.35186 0 14.687 -6.37085 0 
14.6601 -6.38983 0 14.6331 -6.40877 0 14.6059 -6.42769 0 
14.5786 -6.44657 0 14.5512 -6.46542 0 14.5237 -6.48423 0 
14.496 -6.50302 0 14.4683 -6.52175 0 14.4404 -6.54044 0 
14.4125 -6.5591 0 14.3844 -6.5777 0 14.3563 -6.59627 0 
14.328 -6.61479 0 14.2997 -6.63325 0 14.2713 -6.65166 0 
14.2428 -6.67002 0 14.2143 -6.68831 0 14.1857 -6.70656 0 
14.157 -6.72474 0 14.1282 -6.74286 0 14.0994 -6.76093 0 
14.0706 -6.77892 0 14.0416 -6.79687 0 14.0126 -6.81474 0 
13.9836 -6.83254 0 13.9545 -6.85028 0 13.9254 -6.86794 0 
13.8962 -6.88554 0 13.867 -6.90307 0 13.8377 -6.92052 0 
13.8085 -6.93789 0 13.7791 -6.9552 0 13.7498 -6.97241 0 
13.7204 -6.98958 0 13.691 -7.00665 0 13.6616 -7.02364 0 
13.6322 -7.04055 0 13.6027 -7.05739 0 13.5733 -7.07414 0 
13.5438 -7.09081 0 13.5143 -7.10741 0 13.4848 -7.12392 0 
13.4553 -7.14034 0 13.4258 -7.15667 0 13.3963 -7.17292 0 
13.3668 -7.18908 0 13.3372 -7.20516 0 13.3077 -7.22115 0 
13.2782 -7.23705 0 13.2487 -7.25287 0 13.2192 -7.26859 0 
13.1897 -7.28423 0 13.1603 -7.29976 0 13.1308 -7.31521 0 
13.1014 -7.33057 0 13.0719 -7.34585 0 13.0425 -7.36103 0 
13.0131 -7.37611 0 12.9837 -7.39109 0 12.9544 -7.40598 0 
12.9251 -7.42079 0 12.8958 -7.4355 0 12.8665 -7.45011 0 
12.8373 -7.46463 0 12.808 -7.47905 0 12.7788 -7.49339 0 
12.7497 -7.5076 0 12.7206 -7.52175 0 12.6915 -7.53579 0 
12.6624 -7.54972 0 12.6334 -7.56357 0 12.6045 -7.57731 0 
12.5755 -7.59096 0 12.5466 -7.60451 0 12.5178 -7.61796 0 
12.489 -7.63132 0 12.4602 -7.64458 0 12.4315 -7.65774 0 
12.4028 -7.6708 0 12.3741 -7.68376 0 12.3456 -7.69662 0 
12.317 -7.70939 0 12.2885 -7.72206 0 12.2601 -7.73462 0 
12.2317 -7.74709 0 12.2034 -7.75946 0 12.1751 -7.77172 0 
12.1469 -7.78389 0 12.1187 -7.79596 0 12.0906 -7.80793 0 
12.0625 -7.8198 0 12.0345 -7.83158 0 12.0066 -7.84324 0 
11.9787 -7.85482 0 11.9509 -7.86628 0 11.9231 -7.87766 0 
11.8954 -7.88894 0 11.8677 -7.9001 0 11.8401 -7.91117 0 
11.8126 -7.92215 0 11.7851 -7.93303 0 11.7578 -7.9438 0 
11.7304 -7.95448 0 11.7031 -7.96506 0 11.676 -7.97553 0 
11.6488 -7.98591 0 11.6217 -7.99619 0 11.5947 -8.00638 0 
11.5678 -8.01646 0 11.5409 -8.02645 0 11.5141 -8.03634 0 
11.4874 -8.04612 0 11.4607 -8.05582 0 11.4341 -8.06541 0 
11.4076 -8.0749 0 11.3812 -8.08429 0 11.3548 -8.09358 0 
11.3285 -8.10279 0 11.3023 -8.11189 0 11.2761 -8.12089 0 
11.25 -8.1298 0 11.224 -8.13861 0 11.1981 -8.14733 0 
11.1722 -8.15594 0 11.1464 -8.16447 0 11.1207 -8.17288 0 
11.0951 -8.18121 0 11.0695 -8.18944 0 11.044 -8.19759 0 
11.0186 -8.20563 0 10.9933 -8.21357 0 10.968 -8.22143 0 
10.9428 -8.22918 0 10.9177 -8.23685 0 10.8927 -8.24441 0 
10.8677 -8.25189 0 10.8429 -8.25926 0 10.8181 -8.26654 0 
10.7934 -8.27374 0 10.7687 -8.28084 0 10.7442 -8.28784 0 
10.7197 -8.29475 0 10.6953 -8.30157 0 10.6709 -8.3083 0 
10.6467 -8.31495 0 10.6225 -8.32149 0 10.5985 -8.32793 0 
10.5745 -8.33429 0 10.5506 -8.34056 0 10.5267 -8.34674 0 
10.503 -8.35283 0 10.4793 -8.35883 0 10.4557 -8.36473 0 
10.4321 -8.37056 0 10.4087 -8.37629 0 10.3854 -8.38192 0 
10.3621 -8.38748 0 10.3389 -8.39293 0 10.3158 -8.3983 0 
10.2928 -8.40359 0 10.2698 -8.40879 0 10.247 -8.4139 0 
10.2242 -8.41892 0 10.2015 -8.42386 0 10.1789 -8.42871 0 
10.1563 -8.43347 0 10.1339 -8.43815 0 10.1116 -8.44272 0 
10.0893 -8.44723 0 10.0671 -8.45164 0 10.0449 -8.45599 0 
10.0229 -8.46023 0 10.0009 -8.4644 0 9.97906 -8.46849 0 
9.95725 -8.47249 0 9.93558 -8.4764 0 9.91395 -8.48023 0 
9.89244 -8.48396 0 9.87094 -8.48764 0 9.84958 -8.49122 0 
9.82829 -8.49472 0 9.80706 -8.49814 0 9.78591 -8.50148 0 
9.76489 -8.50474 0 9.74393 -8.50791 0 9.72305 -8.51101 0 
9.70222 -8.51403 0 9.68152 -8.51697 0 9.66091 -8.51981 0 
9.64035 -8.52259 0 9.61988 -8.52529 0 9.5995 -8.52791 0 
9.57918 -8.53046 0 9.55894 -8.53293 0 9.5388 -8.53531 0 
9.51875 -8.53762 0 9.49878 -8.53985 0 9.47888 -8.54201 0 
9.4591 -8.54408 0 9.43938 -8.54608 0 9.4197 -8.54802 0 
9.40013 -8.54987 0 9.38065 -8.55165 0 9.36126 -8.55335 0 
9.34192 -8.55499 0 9.32268 -8.55654 0 9.30353 -8.55802 0 
9.28443 -8.55943 0 9.26548 -8.56076 0 9.24656 -8.56202 0 
9.22771 -8.56321 0 9.20896 -8.56433 0 9.19026 -8.56538 0 
9.17169 -8.56636 0 9.15318 -8.56726 0 9.13472 -8.5681 0 
9.11636 -8.56886 0 9.0981 -8.56956 0 9.07988 -8.57018 0 
9.06181 -8.57072 0 9.0438 -8.57121 0 9.02584 -8.57162 0 
9.00797 -8.57197 0 8.99016 -8.57226 0 8.97245 -8.57247 0 
8.95479 -8.57261 0 8.93723 -8.57269 0 8.91977 -8.5727 0 
8.90237 -8.57265 0 8.8851 -8.57251 0 8.86785 -8.57232 0 
8.85065 -8.57207 0 8.83359 -8.57175 0 8.81655 -8.57137 0 
8.79965 -8.57092 0 8.7828 -8.57041 0 8.76601 -8.56984 0 
8.74932 -8.5692 0 8.73269 -8.5685 0 8.71616 -8.56773 0 
8.69971 -8.56689 0 8.68334 -8.566 0 8.66701 -8.56505 0 
8.65078 -8.56403 0 8.63462 -8.56296 0 8.61851 -8.56182 0 
8.6025 -8.56063 0 8.58658 -8.55937 0 8.57073 -8.55805 0 
8.55492 -8.55668 0 8.53927 -8.55522 0 8.52362 -8.55373 0 
8.50808 -8.55218 0 8.49259 -8.55056 0 8.4772 -8.54889 0 
8.46187 -8.54716 0 8.4466 -8.54538 0 8.43143 -8.54354 0 
8.41631 -8.54164 0 8.40125 -8.53969 0 8.38629 -8.53767 0 
8.37148 -8.53558 0 8.35663 -8.53346 0 8.34188 -8.53128 0 
8.32723 -8.52905 0 8.31265 -8.52676 0 8.29811 -8.52442 0 
8.28364 -8.52202 0 8.26926 -8.51957 0 8.25494 -8.51707 0 
8.24072 -8.51451 0 8.22661 -8.51188 0 8.2125 -8.50922 0 
8.19846 -8.50651 0 8.18451 -8.50374 0 8.17066 -8.50092 0 
8.15682 -8.49805 0 8.14309 -8.49513 0 8.12941 -8.49216 0 
8.11584 -8.48914 0 8.10227 -8.48607 0 8.08885 -8.48293 0 
8.07548 -8.47976 0 8.06214 -8.47654 0 8.04888 -8.47327 0 
8.03573 -8.46995 0 8.0226 -8.46659 0 8.00956 -8.46318 0 
7.99657 -8.45972 0 7.98365 -8.45621 0 7.97083 -8.45266 0 
7.95805 -8.44905 0 7.94539 -8.44539 0 7.93273 -8.44169 0 
7.92017 -8.43795 0 7.90767 -8.43417 0 7.89523 -8.43034 0 
7.88284 -8.42646 0 7.87055 -8.42254 0 7.85827 -8.41858 0 
7.8461 -8.41457 0 7.83402 -8.41051 0 7.82199 -8.4064 0 
7.81003 -8.40226 0 7.79812 -8.39808 0 7.78626 -8.39385 0 
7.77447 -8.38958 0 7.76276 -8.38527 0 7.75112 -8.38092 0 
7.73949 -8.37653 0 7.72799 -8.37209 0 7.71652 -8.36762 0 
7.7051 -8.3631 0 7.69381 -8.35852 0 7.68254 -8.35393 0 
7.67133 -8.34929 0 7.66017 -8.34461 0 7.64911 -8.3399 0 
7.63806 -8.33514 0 7.62711 -8.33035 0 7.61621 -8.32552 0 
7.60537 -8.32065 0 7.59458 -8.31574 0 7.58393 -8.31077 0 
7.57326 -8.30579 0 7.56268 -8.30077 0 7.55214 -8.29571 0 
7.54164 -8.29062 0 7.53126 -8.28549 0 7.52089 -8.28032 0 
7.51059 -8.27512 0 7.50037 -8.26988 0 7.49017 -8.26461 0 
7.48011 -8.25928 0 7.47006 -8.25393 0 7.46006 -8.24856 0 
7.45012 -8.24315 0 7.44023 -8.2377 0 7.43039 -8.23222 0 
7.42065 -8.22671 0 7.41092 -8.22116 0 7.40128 -8.21558 0 
7.3917 -8.20997 0 7.38213 -8.20432 0 7.3727 -8.19863 0 
7.36328 -8.19292 0 7.35391 -8.18718 0 7.34459 -8.1814 0 
7.33537 -8.1756 0 7.32616 -8.16977 0 7.317 -8.1639 0 
7.30794 -8.158 0 7.29888 -8.15208 0 7.28992 -8.14612 0 
7.28106 -8.14012 0 7.27216 -8.1341 0 7.26336 -8.12806 0 
7.2546 -8.12198 0 7.2459 -8.11588 0 7.23725 -8.10975 0 
7.22865 -8.10359 0 7.22011 -8.0974 0 7.21162 -8.09119 0 
7.20317 -8.08495 0 7.19478 -8.07867 0 7.18653 -8.07236 0 
7.17824 -8.06603 0 7.17 -8.05968 0 7.16185 -8.05331 0 
7.15372 -8.0469 0 7.14563 -8.04047 0 7.13764 -8.03402 0 
7.12965 -8.02753 0 7.12176 -8.02103 0 7.11387 -8.0145 0 
7.10609 -8.00792 0 7.09834 -8.00134 0 7.09061 -7.99473 0 
7.08296 -7.9881 0 7.07533 -7.98145 0 7.06779 -7.97477 0 
7.06029 -7.96807 0 7.05281 -7.96135 0 7.04537 -7.9546 0 
7.03802 -7.94783 0 7.03068 -7.94103 0 7.02349 -7.9342 0 
7.01624 -7.92736 0 7.00909 -7.9205 0 7.00195 -7.91362 0 
6.9949 -7.90671 0 6.98785 -7.89979 0 6.98086 -7.89284 0 
6.97395 -7.88587 0 6.96705 -7.87888 0 6.9602 -7.87187 0 
6.95348 -7.86483 0 6.94673 -7.85778 0 6.94002 -7.85071 0 
6.93336 -7.84362 0 6.92675 -7.83651 0 6.92018 -7.82938 0 
6.91367 -7.82223 0 6.9072 -7.81507 0 6.90077 -7.80788 0 
6.8944 -7.80068 0 6.88812 -7.79344 0 6.88183 -7.7862 0 
6.87556 -7.77894 0 6.86938 -7.77166 0 6.86323 -7.76437 0 
6.8571 -7.75706 0 6.85105 -7.74973 0 6.84501 -7.74238 0 
6.83902 -7.73502 0 6.83311 -7.72764 0 6.8272 -7.72025 0 
6.82139 -7.71281 0 6.81559 -7.70538 0 6.80982 -7.69794 0 
6.8041 -7.69048 0 6.79838 -7.683 0 6.79275 -7.67551 0 
6.78717 -7.66801 0 6.78159 -7.66048 0 6.7761 -7.65295 0 
6.77061 -7.6454 0 6.76521 -7.63781 0 6.75986 -7.63023 0 
6.7545 -7.62264 0 6.7492 -7.61504 0 6.74393 -7.60741 0 
6.73868 -7.59977 0 6.7335 -7.59213 0 6.72837 -7.58447 0 
6.72324 -7.57679 0 6.71816 -7.5691 0 6.7132 -7.56138 0 
6.70822 -7.55367 0 6.70326 -7.54594 0 6.69835 -7.53821 0 
6.69349 -7.53046 0 6.68863 -7.52269 0 6.68386 -7.51492 0 
6.67909 -7.50713 0 6.67439 -7.49934 0 6.66971 -7.49153 0 
6.66506 -7.48371 0 6.66051 -7.47586 0 6.65595 -7.46802 0 
6.6514 -7.46017 0 6.64692 -7.4523 0 6.64245 -7.44443 0 
6.63803 -7.43655 0 6.63368 -7.42866 0 6.62934 -7.42076 0 
6.62501 -7.41284 0 6.62074 -7.40492 0 6.61657 -7.39697 0 
6.61236 -7.38902 0 6.60819 -7.38107 0 6.60405 -7.37311 0 
6.59997 -7.36515 0 6.59592 -7.35717 0 6.59192 -7.34919 0 
6.58792 -7.34119 0 6.58399 -7.3332 0 6.58007 -7.32518 0 
6.57619 -7.31717 0 6.57239 -7.30912 0 6.5686 -7.30109 0 
6.5648 -7.29305 0 6.56105 -7.285 0 6.55737 -7.27694 0 
6.55369 -7.26888 0 6.55006 -7.26081 0 6.54642 -7.25273 0 
6.54287 -7.24465 0 6.53931 -7.23656 0 6.53585 -7.22844 0 
6.53238 -7.22034 0 6.52895 -7.21223 0 6.52555 -7.20412 0 
6.52216 -7.196 0 6.51885 -7.18788 0 6.51553 -7.17974 0 
6.51226 -7.17161 0 6.50903 -7.16347 0 6.50579 -7.15532 0 
6.5026 -7.14716 0 6.49951 -7.13899 0 6.49637 -7.13082 0 
6.49329 -7.12265 0 6.49025 -7.11448 0 6.48721 -7.1063 0 
6.48421 -7.09812 0 6.48125 -7.08994 0 6.47832 -7.08175 0 
6.47544 -7.07356 0 6.47256 -7.06536 0 6.46975 -7.05714 0 
6.46694 -7.04893 0 6.46417 -7.04072 0 6.46144 -7.03252 0 
6.4587 -7.0243 0 6.45601 -7.01608 0 6.45335 -7.00786 0 
6.45073 -6.99964 0 6.44811 -6.99141 0 6.44556 -6.98318 0 
6.44302 -6.97495 0 6.44056 -6.96669 0 6.43805 -6.95845 0 
6.43561 -6.95022 0 6.43318 -6.94197 0 6.43077 -6.93373 0 
6.42841 -6.92549 0 6.42605 -6.91724 0 6.42376 -6.90899 0 
6.42147 -6.90074 0 6.41918 -6.89248 0 6.41701 -6.88421 0 
6.41479 -6.87595 0 6.41264 -6.8677 0 6.4105 -6.85945 0 
6.40835 -6.85118 0 6.40628 -6.84293 0 6.40421 -6.83467 0 
6.40217 -6.82641 0 6.40016 -6.81815 0 6.39815 -6.80988 0 
6.39623 -6.8016 0 6.3943 -6.79334 0 6.3924 -6.78507 0 
6.39054 -6.77682 0 6.38867 -6.76855 0 6.38684 -6.76029 0 
6.38505 -6.75203 0 6.38325 -6.74376 0 6.38152 -6.73551 0 
6.3798 -6.72724 0 6.37807 -6.71898 0 6.37646 -6.7107 0 
6.3748 -6.70244 0 6.37317 -6.69418 0 6.37159 -6.68593 0 
6.37003 -6.67767 0 6.36847 -6.66941 0 6.36695 -6.66116 0 
6.36545 -6.65291 0 6.36396 -6.64465 0 6.36251 -6.6364 0 
6.36113 -6.62813 0 6.35974 -6.61989 0 6.35835 -6.61164 0 
6.35699 -6.6034 0 6.35566 -6.59516 0 6.35437 -6.58692 0 
6.35308 -6.57868 0 6.35181 -6.57044 0 6.35059 -6.56221 0 
6.34936 -6.55398 0 6.3482 -6.54576 0 6.34708 -6.53751 0 
6.34591 -6.52928 0 6.34482 -6.52106 0 6.34371 -6.51284 0 
6.34265 -6.50463 0 6.34158 -6.49641 0 6.34058 -6.48821 0 
6.33957 -6.48 0 6.33856 -6.47179 0 6.33762 -6.4636 0 
6.33672 -6.45537 0 6.33581 -6.44718 0 6.33489 -6.43899 0 
6.33405 -6.43081 0 6.3332 -6.42262 0 6.33235 -6.41443 0 
6.33157 -6.40626 0 6.33078 -6.39809 0 6.33002 -6.38992 0 
6.32926 -6.38175 0 6.32861 -6.37358 0 6.32792 -6.36542 0 
6.32722 -6.35726 0 6.32659 -6.34912 0 6.32595 -6.34097 0 
6.32531 -6.33282 0 6.32474 -6.32469 0 6.32416 -6.31656 0 
6.32361 -6.30843 0 6.3231 -6.30031 0 6.32258 -6.2922 0 
6.32214 -6.28406 0 6.32165 -6.27595 0 6.32122 -6.26785 0 
6.32079 -6.25975 0 6.32036 -6.25165 0 6.31999 -6.24356 0 
6.31962 -6.23548 0 6.31928 -6.2274 0 6.31894 -6.21932 0 
6.31862 -6.21125 0 6.31839 -6.20317 0 6.31813 -6.19511 0 
6.31787 -6.18706 0 6.31764 -6.17901 0 6.31745 -6.17097 0 
6.31725 -6.16293 0 6.31708 -6.1549 0 6.3169 -6.14687 0 
6.3168 -6.13886 0 6.31668 -6.13084 0 6.31656 -6.12283 0 
6.31655 -6.11481 0 6.3165 -6.10682 0 6.31646 -6.09883 0 
6.31643 -6.09084 0 6.31643 -6.08286 0 6.31645 -6.07489 0 
6.31647 -6.06692 0 6.31652 -6.05896 0 6.31661 -6.05101 0 
6.31669 -6.04306 0 6.31687 -6.03511 0 6.31697 -6.02717 0 
6.31713 -6.01925 0 6.31729 -6.01132 0 6.31748 -6.00341 0 
6.31767 -5.9955 0 6.31788 -5.9876 0 6.31812 -5.97971 0 
6.31835 -5.97181 0 6.31862 -5.96393 0 6.31896 -5.95604 0 
6.31928 -5.94818 0 6.3196 -5.94032 0 6.31995 -5.93247 0 
6.32029 -5.92462 0 6.32067 -5.91678 0 6.32107 -5.90895 0 
6.32146 -5.90112 0 6.32189 -5.8933 0 6.32234 -5.8855 0 
6.32279 -5.87769 0 6.32331 -5.86987 0 6.32381 -5.86209 0 
6.32431 -5.85431 0 6.32484 -5.84653 0 6.32539 -5.83877 0 
6.32594 -5.83101 0 6.32652 -5.82326 0 6.32709 -5.81551 0 
6.3277 -5.80778 0 6.32832 -5.80005 0 6.32902 -5.79231 0 
6.32968 -5.7846 0 6.33035 -5.7769 0 6.33103 -5.7692 0 
6.33173 -5.76151 0 6.33247 -5.75383 0 6.33319 -5.74616 0 
6.33394 -5.73849 0 6.33472 -5.73084 0 6.33549 -5.72319 0 
6.3363 -5.71555 0 6.33717 -5.7079 0 6.338 -5.70027 0 
6.33885 -5.69266 0 6.33969 -5.68504 0 6.34056 -5.67744 0 
6.34147 -5.66985 0 6.3424 -5.66228 0 6.34332 -5.6547 0 
6.34423 -5.64713 0 6.34522 -5.63958 0 6.34623 -5.63201 0 
6.3472 -5.62446 0 6.34819 -5.61693 0 6.34921 -5.60941 0 
6.35026 -5.6019 0 6.3513 -5.59439 0 6.35233 -5.58688 0 
6.35343 -5.5794 0 6.35452 -5.57192 0 6.3556 -5.56444 0 
6.35679 -5.55697 0 6.35789 -5.5495 0 6.35905 -5.54206 0 
6.36021 -5.53462 0 6.3614 -5.5272 0 6.36258 -5.51978 0 
6.36378 -5.51237 0 6.36502 -5.50497 0 6.36624 -5.49757 0 
6.3675 -5.49019 0 6.36874 -5.48281 0 6.37006 -5.47543 0 
6.37136 -5.46807 0 6.37265 -5.46072 0 6.37397 -5.45338 0 
6.37532 -5.44606 0 6.37666 -5.43874 0 6.37803 -5.43143 0 
6.37939 -5.42412 0 6.38078 -5.41683 0 6.38219 -5.40955 0 
6.38364 -5.40225 0 6.38507 -5.39499 0 6.38654 -5.38774 0 
6.388 -5.38049 0 6.38944 -5.37325 0 6.39095 -5.36603 0 
6.39245 -5.35881 0 6.39395 -5.35159 0 6.39547 -5.34439 0 
6.39702 -5.3372 0 6.3986 -5.33002 0 6.40017 -5.32285 0 
6.40173 -5.31568 0 6.40332 -5.30852 0 6.40494 -5.30138 0 
6.40658 -5.29425 0 6.40821 -5.28712 0 6.40984 -5.28 0 
6.4115 -5.27289 0 6.41317 -5.2658 0 6.41488 -5.25872 0 
6.41658 -5.25164 0 6.41827 -5.24457 0 6.42002 -5.23751 0 
6.42177 -5.23047 0 6.42351 -5.22342 0 6.42527 -5.21639 0 
6.42706 -5.20938 0 6.42885 -5.20237 0 6.43065 -5.19537 0 
6.43245 -5.18837 0 6.43428 -5.18139 0 6.43614 -5.17443 0 
6.43798 -5.16746 0 6.43985 -5.16051 0 6.44176 -5.15358 0 
6.44365 -5.14665 0 6.44553 -5.13972 0 6.44744 -5.1328 0 
6.44938 -5.1259 0 6.45134 -5.11902 0 6.4533 -5.11214 0 
6.45524 -5.10526 0 6.45724 -5.09841 0 6.45921 -5.09155 0 
6.46124 -5.08471 0 6.46325 -5.07788 0 6.46526 -5.07105 0 
6.4673 -5.06424 0 6.46936 -5.05744 0 6.47141 -5.05064 0 
6.4735 -5.04386 0 6.47561 -5.0371 0 6.4777 -5.03033 0 
6.47983 -5.02358 0 6.48194 -5.01684 0 6.48409 -5.01011 0 
6.48622 -5.00338 0 6.48839 -4.99667 0 6.49057 -4.98997 0 
6.49275 -4.98328 0 6.49496 -4.9766 0 6.49715 -4.96993 0 
6.49938 -4.96327 0 6.50163 -4.95662 0 6.50387 -4.94998 0 
6.5061 -4.94334 0 6.50839 -4.93673 0 6.51068 -4.93012 0 
6.51295 -4.92352 0 6.51525 -4.91692 0 6.51759 -4.91035 0 
6.51991 -4.90378 0 6.52226 -4.89722 0 6.52459 -4.89067 0 
6.52696 -4.88413 0 6.52932 -4.8776 0 6.5317 -4.87108 0 
6.53411 -4.86457 0 6.53651 -4.85807 0 6.53893 -4.85159 0 
6.54135 -4.84511 0 6.5438 -4.83864 0 6.54627 -4.83219 0 
6.54874 -4.82574 0 6.55122 -4.81931 0 6.5537 -4.81288 0 
6.55621 -4.80646 0 6.55871 -4.80005 0 6.56123 -4.79366 0 
6.56378 -4.78728 0 6.56632 -4.7809 0 6.56885 -4.77453 0 
6.57144 -4.76819 0 6.57399 -4.76183 0 6.57661 -4.75551 0 
6.57921 -4.74918 0 6.5818 -4.74286 0 6.58442 -4.73656 0 
6.58707 -4.73027 0 6.58971 -4.72398 0 6.59238 -4.71771 0 
6.59507 -4.71146 0 6.59771 -4.7052 0 6.60042 -4.69896 0 
6.60312 -4.69273 0 6.60585 -4.68651 0 6.60856 -4.6803 0 
6.61131 -4.6741 0 6.61404 -4.66791 0 6.6168 -4.66173 0 
6.61956 -4.65556 0 6.62233 -4.6494 0 6.62514 -4.64326 0 
6.62793 -4.63712 0 6.63076 -4.63099 0 6.63357 -4.62487 0 
6.63641 -4.61877 0 6.63924 -4.61266 0 6.6421 -4.60658 0 
6.64498 -4.60051 0 6.64786 -4.59444 0 6.65075 -4.58839 0 
6.65365 -4.58234 0 6.65657 -4.57631 0 6.65948 -4.57028 0 
6.66242 -4.56427 0 6.66534 -4.55826 0 6.66829 -4.55227 0 
6.67128 -4.54629 0 6.67425 -4.54031 0 6.67725 -4.53435 0 
6.68024 -4.5284 0 6.68325 -4.52246 0 6.68626 -4.51652 0 
6.68929 -4.5106 0 6.69232 -4.50469 0 6.69537 -4.49879 0 
6.69844 -4.4929 0 6.70151 -4.48702 0 6.70461 -4.48115 0 
6.7077 -4.47529 0 6.71081 -4.46944 0 6.71391 -4.4636 0 
6.71704 -4.45777 0 6.72016 -4.45195 0 6.7233 -4.44614 0 
6.72648 -4.44035 0 6.72965 -4.43456 0 6.73284 -4.42878 0 
6.73602 -4.42301 0 6.73923 -4.41726 0 6.74243 -4.41151 0 
6.74566 -4.40577 0 6.74888 -4.40004 0 6.75212 -4.39432 0 
6.7554 -4.38862 0 6.75866 -4.38293 0 6.76192 -4.37724 0 
6.7652 -4.37156 0 6.7685 -4.3659 0 6.7718 -4.36024 0 
6.77513 -4.3546 0 6.77844 -4.34896 0 6.78179 -4.34333 0 
6.78516 -4.33772 0 6.78852 -4.33212 0 6.79187 -4.32652 0 
6.79525 -4.32094 0 6.79865 -4.31537 0 6.80205 -4.3098 0 
6.80547 -4.30425 0 6.80889 -4.29871 0 6.81233 -4.29317 0 
6.81576 -4.28765 0 6.81922 -4.28214 0 6.82267 -4.27663 0 
6.82615 -4.27114 0 6.82965 -4.26566 0 6.83315 -4.26019 0 
6.83668 -4.25473 0 6.84019 -4.24927 0 6.84373 -4.24383 0 
6.84726 -4.2384 0 6.85082 -4.23298 0 6.85437 -4.22756 0 
6.85795 -4.22216 0 6.86152 -4.21677 0 6.86511 -4.21139 0 
6.8687 -4.20601 0 6.87231 -4.20065 0 6.87595 -4.1953 0 
6.87958 -4.18996 0 6.88324 -4.18463 0 6.88689 -4.1793 0 
6.89057 -4.174 0 6.89424 -4.16869 0 6.89793 -4.1634 0 
6.90162 -4.15812 0 6.90534 -4.15285 0 6.90904 -4.14758 0 
6.91277 -4.14233 0 6.91653 -4.13709 0 6.92028 -4.13186 0 
6.92402 -4.12663 0 6.92779 -4.12142 0 6.93159 -4.11622 0 
6.93538 -4.11102 0 6.93919 -4.10584 0 6.943 -4.10067 0 
6.94684 -4.09551 0 6.95066 -4.09035 0 6.95451 -4.08521 0 
6.95835 -4.08007 0 6.96222 -4.07495 0 6.96613 -4.06984 0 