# vtk DataFile Version 3.0
vtk output
ASCII
DATASET POLYDATA
POINTS 5000 float
11.9883 -37.2941 0 15.4157 -36.7717 0 16.854 -36.5411 0 
17.9622 -36.3607 0 18.8983 -36.2071 0 19.7237 -36.0712 0 
20.4699 -35.9482 0 21.1557 -35.8354 0 21.7934 -35.7308 0 
22.3913 -35.6332 0 22.9558 -35.5415 0 23.4917 -35.4549 0 
24.0025 -35.373 0 24.4912 -35.2951 0 24.9602 -35.221 0 
25.4115 -35.1502 0 25.8466 -35.0825 0 26.2671 -35.0178 0 
26.6741 -34.9556 0 27.0686 -34.896 0 27.4517 -34.8386 0 
27.824 -34.7834 0 28.1863 -34.7302 0 28.5392 -34.6789 0 
28.8833 -34.6294 0 29.2192 -34.5815 0 29.547 -34.5353 0 
29.8675 -34.4906 0 30.181 -34.4474 0 30.4878 -34.4055 0 
30.7883 -34.365 0 31.0826 -34.3256 0 31.3712 -34.2875 0 
31.6542 -34.2506 0 31.9319 -34.2147 0 32.2045 -34.1798 0 
32.4722 -34.1459 0 32.7352 -34.113 0 32.9938 -34.081 0 
33.2479 -34.0498 0 33.4979 -34.0196 0 33.7439 -33.9901 0 
33.986 -33.9614 0 34.2242 -33.9334 0 34.4589 -33.9061 0 
34.6901 -33.8796 0 34.9178 -33.8537 0 35.1422 -33.8283 0 
35.3634 -33.8036 0 35.5815 -33.7795 0 35.7967 -33.756 0 
36.0089 -33.733 0 36.2183 -33.7106 0 36.4249 -33.6886 0 
36.6288 -33.6672 0 36.8301 -33.6461 0 37.029 -33.6256 0 
37.2253 -33.6055 0 37.4192 -33.5857 0 37.6108 -33.5664 0 
37.8001 -33.5474 0 37.9872 -33.5289 0 38.1722 -33.5107 0 
38.355 -33.4928 0 38.5357 -33.4753 0 38.7145 -33.4581 0 
38.8913 -33.4412 0 39.0661 -33.4246 0 39.2391 -33.4082 0 
39.4102 -33.3922 0 39.5796 -33.3764 0 39.7472 -33.3609 0 
39.9131 -33.3456 0 40.0773 -33.3306 0 40.2398 -33.3157 0 
40.4008 -33.3011 0 40.5603 -33.2868 0 40.7181 -33.2726 0 
40.8744 -33.2586 0 41.0293 -33.2446 0 41.1828 -33.231 0 
41.3349 -33.2175 0 41.4855 -33.2042 0 41.6348 -33.1911 0 
41.7827 -33.1781 0 41.9294 -33.1652 0 42.0747 -33.1525 0 
42.2188 -33.1399 0 42.3617 -33.1274 0 42.5033 -33.115 0 
42.6439 -33.1028 0 42.7831 -33.0906 0 42.9213 -33.0786 0 
43.0584 -33.0667 0 43.1943 -33.0548 0 43.3292 -33.0431 0 
43.4629 -33.0314 0 43.5957 -33.0199 0 43.7274 -33.0084 0 
43.8581 -32.9968 0 43.9879 -32.9855 0 44.1166 -32.9741 0 
44.2444 -32.9629 0 44.3712 -32.9517 0 44.4971 -32.9406 0 
44.6222 -32.9295 0 44.7463 -32.9184 0 44.8695 -32.9074 0 
44.9918 -32.8965 0 45.1134 -32.8855 0 45.2341 -32.8745 0 
45.3539 -32.8637 0 45.4729 -32.8528 0 45.5912 -32.842 0 
45.7086 -32.8312 0 45.8253 -32.8204 0 45.9413 -32.8096 0 
46.0564 -32.7989 0 46.1708 -32.7881 0 46.2845 -32.7773 0 
46.3975 -32.7665 0 46.5098 -32.7558 0 46.6214 -32.745 0 
46.7323 -32.7343 0 46.8425 -32.7235 0 46.952 -32.7128 0 
47.061 -32.702 0 47.1692 -32.6913 0 47.2768 -32.6805 0 
47.3838 -32.6697 0 47.4901 -32.6589 0 47.5959 -32.648 0 
47.7011 -32.6371 0 47.8056 -32.6263 0 47.9097 -32.6154 0 
48.0131 -32.6045 0 48.1159 -32.5935 0 48.2182 -32.5826 0 
48.3198 -32.5716 0 48.421 -32.5605 0 48.5217 -32.5495 0 
48.6218 -32.5383 0 48.7214 -32.5272 0 48.8205 -32.516 0 
48.919 -32.5048 0 49.0171 -32.4936 0 49.1146 -32.4824 0 
49.2117 -32.471 0 49.3083 -32.4597 0 49.4044 -32.4483 0 
49.5 -32.4369 0 49.5952 -32.4253 0 49.6899 -32.4138 0 
49.7842 -32.4022 0 49.878 -32.3906 0 49.9713 -32.3789 0 
50.0642 -32.3672 0 50.1567 -32.3555 0 50.2488 -32.3437 0 
50.3405 -32.3318 0 50.4317 -32.3199 0 50.5226 -32.3079 0 
50.613 -32.2958 0 50.703 -32.2838 0 50.7926 -32.2716 0 
50.8818 -32.2594 0 50.9707 -32.2472 0 51.0592 -32.2349 0 
51.1472 -32.2226 0 51.235 -32.2102 0 51.3223 -32.1977 0 
51.4093 -32.1852 0 51.4959 -32.1725 0 51.5822 -32.1598 0 
51.6681 -32.1471 0 51.7537 -32.1344 0 51.8389 -32.1215 0 
51.9238 -32.1086 0 52.0083 -32.0957 0 52.0925 -32.0827 0 
52.1764 -32.0696 0 52.26 -32.0564 0 52.3432 -32.0432 0 
52.4262 -32.0299 0 52.5088 -32.0165 0 52.5911 -32.0031 0 
52.673 -31.9897 0 52.7548 -31.9761 0 52.8362 -31.9625 0 
52.9172 -31.9489 0 52.998 -31.9351 0 53.0785 -31.9213 0 
53.1587 -31.9075 0 53.2387 -31.8934 0 53.3183 -31.8794 0 
53.3977 -31.8653 0 53.4768 -31.8512 0 53.5556 -31.837 0 
53.6342 -31.8227 0 53.7124 -31.8084 0 53.7904 -31.794 0 
53.8682 -31.7795 0 53.9457 -31.7649 0 54.0229 -31.7503 0 
54.0999 -31.7355 0 54.1767 -31.7207 0 54.2531 -31.7059 0 
54.3294 -31.691 0 54.4053 -31.676 0 54.4811 -31.661 0 
54.5566 -31.6458 0 54.6319 -31.6307 0 54.7069 -31.6154 0 
54.7817 -31.6001 0 54.8563 -31.5846 0 54.9307 -31.5691 0 
55.0048 -31.5536 0 55.0786 -31.5379 0 55.1523 -31.5222 0 
55.2257 -31.5065 0 55.299 -31.4907 0 55.372 -31.4748 0 
55.4448 -31.4588 0 55.5174 -31.4427 0 55.5898 -31.4265 0 
55.662 -31.4103 0 55.734 -31.3941 0 55.8057 -31.3777 0 
55.8773 -31.3613 0 55.9487 -31.3449 0 56.0199 -31.3283 0 
56.0908 -31.3117 0 56.1616 -31.295 0 56.2322 -31.2783 0 
56.3025 -31.2614 0 56.3728 -31.2444 0 56.4428 -31.2274 0 
56.5126 -31.2104 0 56.5822 -31.1933 0 56.6517 -31.1761 0 
56.7209 -31.1588 0 56.7901 -31.1415 0 56.859 -31.1241 0 
56.9277 -31.1066 0 56.9963 -31.0891 0 57.0646 -31.0714 0 
57.1328 -31.0537 0 57.2009 -31.0359 0 57.2688 -31.0181 0 
57.3365 -31.0002 0 57.404 -30.9822 0 57.4714 -30.9642 0 
57.5386 -30.9461 0 57.6056 -30.9279 0 57.6725 -30.9096 0 
57.7392 -30.8913 0 57.8059 -30.8728 0 57.8722 -30.8544 0 
57.9385 -30.8358 0 58.0046 -30.8172 0 58.0705 -30.7986 0 
58.1363 -30.7798 0 58.2019 -30.761 0 58.2674 -30.7421 0 
58.3328 -30.7232 0 58.3979 -30.7042 0 58.463 -30.685 0 
58.5279 -30.6658 0 58.5926 -30.6466 0 58.6572 -30.6273 0 
58.7217 -30.608 0 58.786 -30.5886 0 58.8501 -30.5691 0 
58.9142 -30.5495 0 58.9781 -30.5299 0 59.0418 -30.5102 0 
59.1055 -30.4904 0 59.169 -30.4705 0 59.2323 -30.4506 0 
59.2956 -30.4306 0 59.3587 -30.4106 0 59.4216 -30.3905 0 
59.4844 -30.3703 0 59.5471 -30.3501 0 59.6097 -30.3298 0 
59.6722 -30.3095 0 59.7344 -30.289 0 59.7966 -30.2684 0 
59.8587 -30.2479 0 59.9206 -30.2273 0 59.9824 -30.2066 0 
60.0441 -30.1858 0 60.1057 -30.165 0 60.1671 -30.1441 0 
60.2285 -30.1232 0 60.2896 -30.1022 0 60.3507 -30.0811 0 
60.4117 -30.0599 0 60.4726 -30.0387 0 60.5333 -30.0174 0 
60.5939 -29.9961 0 60.6544 -29.9747 0 60.7148 -29.9532 0 
60.775 -29.9317 0 60.8351 -29.9101 0 60.8951 -29.8885 0 
60.9551 -29.8668 0 61.0149 -29.8451 0 61.0746 -29.8231 0 
61.1342 -29.8012 0 61.1937 -29.7793 0 61.2531 -29.7573 0 
61.3124 -29.7352 0 61.3715 -29.7131 0 61.4306 -29.6909 0 
61.4895 -29.6687 0 61.5483 -29.6464 0 61.6071 -29.624 0 
61.6657 -29.6015 0 61.7243 -29.579 0 61.7827 -29.5564 0 
61.841 -29.5338 0 61.8992 -29.5112 0 61.9573 -29.4885 0 
62.0154 -29.4657 0 62.0733 -29.4428 0 62.1311 -29.42 0 
62.1888 -29.397 0 62.2464 -29.3739 0 62.3039 -29.3508 0 
62.3614 -29.3277 0 62.4187 -29.3045 0 62.4759 -29.2813 0 
62.533 -29.258 0 62.59 -29.2347 0 62.647 -29.2113 0 
62.7039 -29.1878 0 62.7606 -29.1643 0 62.8173 -29.1407 0 
62.8739 -29.117 0 62.9303 -29.0933 0 62.9867 -29.0696 0 
63.0429 -29.0458 0 63.0991 -29.0219 0 63.1552 -28.9981 0 
63.2113 -28.9741 0 63.2672 -28.9501 0 63.323 -28.9261 0 
63.3787 -28.9019 0 63.4344 -28.8777 0 63.4899 -28.8535 0 
63.5454 -28.8292 0 63.6008 -28.8049 0 63.6561 -28.7805 0 
63.7113 -28.7561 0 63.7664 -28.7316 0 63.8214 -28.7071 0 
63.8763 -28.6825 0 63.9312 -28.6579 0 63.986 -28.6332 0 
64.0407 -28.6084 0 64.0953 -28.5836 0 64.1498 -28.5588 0 
64.2042 -28.5339 0 64.2586 -28.509 0 64.3129 -28.484 0 
64.3671 -28.459 0 64.4211 -28.434 0 64.4751 -28.4088 0 
64.5291 -28.3837 0 64.583 -28.3584 0 64.6368 -28.3331 0 
64.6904 -28.3078 0 64.744 -28.2824 0 64.7975 -28.257 0 
64.851 -28.2316 0 64.9044 -28.2061 0 64.9576 -28.1805 0 
65.0108 -28.155 0 65.064 -28.1293 0 65.117 -28.1036 0 
65.17 -28.0778 0 65.2229 -28.052 0 65.2757 -28.0262 0 
65.3284 -28.0004 0 65.3811 -27.9745 0 65.4336 -27.9485 0 
65.4862 -27.9225 0 65.5386 -27.8965 0 65.5909 -27.8704 0 
65.6432 -27.8443 0 65.6954 -27.818 0 65.7475 -27.7918 0 
65.7996 -27.7655 0 65.8515 -27.7392 0 65.9034 -27.7129 0 
65.9552 -27.6865 0 66.007 -27.6601 0 66.0586 -27.6336 0 
66.1102 -27.6071 0 66.1617 -27.5806 0 66.2132 -27.5539 0 
66.2645 -27.5273 0 66.3159 -27.5006 0 66.3671 -27.4739 0 
66.4182 -27.4472 0 66.4693 -27.4204 0 66.5202 -27.3935 0 
66.5712 -27.3667 0 66.622 -27.3398 0 66.6728 -27.3128 0 
66.7235 -27.2858 0 66.7742 -27.2587 0 66.8247 -27.2316 0 
66.8752 -27.2045 0 66.9256 -27.1774 0 66.976 -27.1502 0 
67.0263 -27.123 0 67.0764 -27.0958 0 67.1266 -27.0685 0 
67.1767 -27.0412 0 67.2266 -27.0138 0 67.2766 -26.9863 0 
67.3264 -26.9589 0 67.3762 -26.9314 0 67.4259 -26.9039 0 
67.4756 -26.8764 0 67.5251 -26.8488 0 67.5746 -26.8212 0 
67.6241 -26.7936 0 67.6734 -26.7659 0 67.7227 -26.7382 0 
67.7719 -26.7104 0 67.8211 -26.6825 0 67.8702 -26.6547 0 
67.9192 -26.6269 0 67.9682 -26.599 0 68.017 -26.5711 0 
68.0658 -26.5432 0 68.1146 -26.5152 0 68.1633 -26.4872 0 
68.2119 -26.4591 0 68.2604 -26.4311 0 68.3089 -26.4028 0 
68.3573 -26.3747 0 68.4056 -26.3465 0 68.4539 -26.3183 0 
68.5021 -26.2901 0 68.5502 -26.2618 0 68.5983 -26.2335 0 
68.6463 -26.2052 0 68.6942 -26.1769 0 68.7421 -26.1485 0 
68.7899 -26.12 0 68.8376 -26.0915 0 68.8853 -26.063 0 
68.9329 -26.0345 0 68.9804 -26.006 0 69.0279 -25.9775 0 
69.0753 -25.9489 0 69.1227 -25.9203 0 69.1699 -25.8916 0 
69.2171 -25.8629 0 69.2643 -25.8342 0 69.3114 -25.8054 0 
69.3584 -25.7767 0 69.4053 -25.7479 0 69.4522 -25.7191 0 
69.4989 -25.6902 0 69.5457 -25.6614 0 69.5924 -25.6325 0 
69.639 -25.6036 0 69.6856 -25.5746 0 69.732 -25.5457 0 
69.7784 -25.5166 0 69.8249 -25.4875 0 69.8711 -25.4585 0 
69.9173 -25.4294 0 69.9635 -25.4004 0 70.0096 -25.3712 0 
70.0556 -25.3421 0 70.1016 -25.3129 0 70.1475 -25.2838 0 
70.1933 -25.2545 0 70.2391 -25.2253 0 70.2848 -25.1959 0 
70.3304 -25.1667 0 70.3761 -25.1373 0 70.4215 -25.108 0 
70.467 -25.0787 0 70.5124 -25.0493 0 70.5577 -25.0199 0 
70.603 -24.9905 0 70.6481 -24.9611 0 70.6933 -24.9316 0 
70.7384 -24.902 0 70.7834 -24.8725 0 70.8284 -24.843 0 
70.8732 -24.8134 0 70.9181 -24.7839 0 70.9627 -24.7543 0 
71.0074 -24.7247 0 71.0521 -24.695 0 71.0967 -24.6654 0 
71.1411 -24.6357 0 71.1856 -24.606 0 71.2299 -24.5762 0 
71.2743 -24.5465 0 71.3185 -24.5167 0 71.3627 -24.487 0 
71.4068 -24.4572 0 71.4509 -24.4274 0 71.4949 -24.3976 0 
71.5388 -24.3677 0 71.5826 -24.3379 0 71.6265 -24.308 0 
[...]
POINT_DATA 5000
VECTORS velocity double
16.926 -11.8809 0 16.8588 -11.1339 0 16.8417 -10.8104 0 
16.8312 -10.5596 0 16.8233 -10.3479 0 16.8165 -10.162 0 
16.8101 -9.9952 0 16.8038 -9.84327 0 16.7973 -9.70354 0 
16.7904 -9.57409 0 16.783 -9.4535 0 16.7751 -9.34068 0 
16.7666 -9.23477 0 16.7575 -9.1351 0 16.7478 -9.04106 0 
16.7374 -8.95216 0 16.7264 -8.86806 0 16.7148 -8.78831 0 
16.7026 -8.71262 0 16.6897 -8.64076 0 16.6762 -8.57244 0 
16.6622 -8.50747 0 16.6475 -8.44563 0 16.6323 -8.38676 0 
16.6165 -8.33069 0 16.6002 -8.27726 0 16.5834 -8.2264 0 
16.566 -8.1779 0 16.5482 -8.13167 0 16.5298 -8.08759 0 
16.511 -8.04558 0 16.4918 -8.00556 0 16.4721 -7.9674 0 
16.452 -7.93106 0 16.4315 -7.89643 0 16.4106 -7.86345 0 
16.3893 -7.83207 0 16.3676 -7.8022 0 16.3456 -7.77377 0 
16.3233 -7.74675 0 16.3006 -7.72105 0 16.2776 -7.69665 0 
16.2542 -7.67348 0 16.2307 -7.65152 0 16.2068 -7.63069 0 
16.1826 -7.61095 0 16.1582 -7.59229 0 16.1335 -7.57466 0 
16.1086 -7.558 0 16.0835 -7.54228 0 16.0582 -7.52748 0 
16.0326 -7.51356 0 16.0068 -7.50048 0 15.9809 -7.48823 0 
15.9547 -7.47677 0 15.9284 -7.46606 0 15.902 -7.4561 0 
15.8753 -7.44684 0 15.8486 -7.43827 0 15.8216 -7.43036 0 
15.7946 -7.42308 0 15.7674 -7.41642 0 15.7401 -7.41036 0 
15.7127 -7.40487 0 15.6851 -7.39993 0 15.6575 -7.39553 0 
15.6298 -7.39165 0 15.602 -7.38827 0 15.5741 -7.38538 0 
15.5462 -7.38294 0 15.5181 -7.38096 0 15.49 -7.37941 0 
15.4619 -7.37829 0 15.4336 -7.37757 0 15.4054 -7.37724 0 
15.3771 -7.3773 0 15.3487 -7.37772 0 15.3204 -7.37849 0 
15.2919 -7.37961 0 15.2635 -7.38107 0 15.2351 -7.38283 0 
15.2066 -7.38491 0 15.1781 -7.38728 0 15.1496 -7.38995 0 
15.1211 -7.39289 0 15.0926 -7.3961 0 15.0641 -7.39956 0 
15.0356 -7.40328 0 15.0071 -7.40724 0 14.9786 -7.41144 0 
14.9501 -7.41586 0 14.9217 -7.4205 0 14.8933 -7.42534 0 
14.8649 -7.43039 0 14.8365 -7.43563 0 14.8081 -7.44107 0 
14.7798 -7.44668 0 14.7515 -7.45246 0 14.7233 -7.45842 0 
14.6951 -7.46454 0 14.6669 -7.47081 0 14.6388 -7.47723 0 
14.6107 -7.4838 0 14.5827 -7.4905 0 14.5547 -7.49734 0 
14.5268 -7.5043 0 14.4989 -7.5114 0 14.4711 -7.5186 0 
14.4433 -7.52592 0 14.4156 -7.53335 0 14.388 -7.54089 0 
14.3604 -7.54852 0 14.3329 -7.55625 0 14.3055 -7.56407 0 
14.2781 -7.57198 0 14.2508 -7.57998 0 14.2236 -7.58805 0 
14.1964 -7.5962 0 14.1693 -7.60442 0 14.1423 -7.61271 0 
14.1154 -7.62107 0 14.0886 -7.62948 0 14.0618 -7.63796 0 
14.0351 -7.64649 0 14.0085 -7.65508 0 13.9819 -7.66371 0 
13.9555 -7.6724 0 13.9291 -7.68112 0 13.9028 -7.68989 0 
13.8766 -7.6987 0 13.8505 -7.70753 0 13.8245 -7.71641 0 
13.7986 -7.72532 0 13.7728 -7.73425 0 13.747 -7.74322 0 
13.7213 -7.7522 0 13.6958 -7.76121 0 13.6703 -7.77023 0 
13.645 -7.77927 0 13.6197 -7.78833 0 13.5945 -7.79741 0 
13.5694 -7.80648 0 13.5444 -7.81558 0 13.5195 -7.82468 0 
13.4947 -7.83379 0 13.47 -7.8429 0 13.4454 -7.85201 0 
13.4209 -7.86113 0 13.3965 -7.87024 0 13.3722 -7.87934 0 
13.348 -7.88845 0 13.3239 -7.89755 0 13.3 -7.90663 0 
13.276 -7.91572 0 13.2522 -7.92479 0 13.2286 -7.93386 0 
13.205 -7.9429 0 13.1815 -7.95194 0 13.1581 -7.96096 0 
13.1348 -7.96996 0 13.1116 -7.97895 0 13.0886 -7.98792 0 
13.0656 -7.99686 0 13.0428 -8.00578 0 13.02 -8.01468 0 
12.9974 -8.02356 0 12.9748 -8.03241 0 12.9524 -8.04125 0 
12.9301 -8.05004 0 12.9078 -8.05882 0 12.8857 -8.06756 0 
12.8637 -8.07629 0 12.8419 -8.08496 0 12.8201 -8.09362 0 
12.7984 -8.10224 0 12.7768 -8.11084 0 12.7553 -8.1194 0 
12.734 -8.12791 0 12.7127 -8.1364 0 12.6916 -8.14485 0 
12.6705 -8.15326 0 12.6496 -8.16164 0 12.6288 -8.16998 0 
12.6081 -8.17827 0 12.5875 -8.18653 0 12.567 -8.19475 0 
12.5466 -8.20292 0 12.5263 -8.21107 0 12.5061 -8.21917 0 
12.4861 -8.22721 0 12.4661 -8.23523 0 12.4463 -8.24319 0 
12.4265 -8.25111 0 12.4069 -8.25898 0 12.3874 -8.26681 0 
12.368 -8.27459 0 12.3487 -8.28234 0 12.3295 -8.29003 0 
12.3104 -8.29767 0 12.2914 -8.30527 0 12.2725 -8.31281 0 
12.2537 -8.32032 0 12.2351 -8.32776 0 12.2165 -8.33517 0 
12.1981 -8.34251 0 12.1798 -8.34981 0 12.1616 -8.35705 0 
12.1434 -8.36426 0 12.1255 -8.3714 0 12.1075 -8.3785 0 
12.0898 -8.38554 0 12.072 -8.39253 0 12.0545 -8.39947 0 
12.037 -8.40636 0 12.0197 -8.41318 0 12.0024 -8.41996 0 
11.9852 -8.42668 0 11.9682 -8.43334 0 11.9513 -8.43996 0 
11.9344 -8.44652 0 11.9177 -8.45303 0 11.9011 -8.45947 0 
11.8846 -8.46587 0 11.8682 -8.47221 0 11.8519 -8.47848 0 
11.8357 -8.4847 0 11.8196 -8.49087 0 11.8036 -8.49699 0 
11.7877 -8.50304 0 11.772 -8.50904 0 11.7563 -8.51498 0 
11.7407 -8.52087 0 11.7252 -8.5267 0 11.7099 -8.53246 0 
11.6946 -8.53817 0 11.6795 -8.54382 0 11.6645 -8.54941 0 
11.6495 -8.55494 0 11.6347 -8.56042 0 11.62 -8.56583 0 
11.6054 -8.57119 0 11.5908 -8.5765 0 11.5764 -8.58174 0 
11.5621 -8.58692 0 11.5478 -8.59204 0 11.5338 -8.59709 0 
11.5198 -8.60209 0 11.5059 -8.60704 0 11.492 -8.61193 0 
11.4783 -8.61675 0 11.4647 -8.62151 0 11.4512 -8.62622 0 
11.4378 -8.63086 0 11.4245 -8.63545 0 11.4113 -8.63997 0 
11.3982 -8.64444 0 11.3852 -8.64883 0 11.3723 -8.65317 0 
11.3595 -8.65746 0 11.3468 -8.66168 0 11.3342 -8.66584 0 
11.3217 -8.66994 0 11.3093 -8.67398 0 11.297 -8.67797 0 
11.2848 -8.68189 0 11.2727 -8.68575 0 11.2607 -8.68953 0 
11.2488 -8.69327 0 11.237 -8.69695 0 11.2253 -8.70056 0 
11.2136 -8.70412 0 11.2021 -8.70762 0 11.1907 -8.71105 0 
11.1793 -8.71443 0 11.1681 -8.71774 0 11.157 -8.72099 0 
11.1459 -8.72418 0 11.135 -8.72731 0 11.1242 -8.73037 0 
11.1134 -8.73338 0 11.1028 -8.73634 0 11.0922 -8.73922 0 
11.0817 -8.74205 0 11.0713 -8.74482 0 11.0611 -8.74753 0 
11.0509 -8.75018 0 11.0408 -8.75276 0 11.0308 -8.75527 0 
11.0209 -8.75774 0 11.0111 -8.76014 0 11.0014 -8.76249 0 
10.9917 -8.76477 0 10.9822 -8.767 0 10.9727 -8.76917 0 
10.9634 -8.77128 0 10.9541 -8.77331 0 10.9449 -8.7753 0 
10.9359 -8.77721 0 10.9269 -8.77908 0 10.918 -8.78089 0 
10.9092 -8.78263 0 10.9005 -8.78432 0 10.8918 -8.78595 0 
10.8833 -8.78751 0 10.8748 -8.78902 0 10.8665 -8.79047 0 
10.8582 -8.79186 0 10.85 -8.79319 0 10.8419 -8.79445 0 
10.8339 -8.79567 0 10.826 -8.79682 0 10.8182 -8.79791 0 
10.8104 -8.79896 0 10.8027 -8.79994 0 10.7952 -8.80086 0 
10.7877 -8.80172 0 10.7803 -8.80252 0 10.7729 -8.80327 0 
10.7658 -8.80394 0 10.7586 -8.80457 0 10.7515 -8.80514 0 
10.7446 -8.80566 0 10.7377 -8.80611 0 10.7309 -8.80651 0 
10.7241 -8.80686 0 10.7175 -8.80714 0 10.7109 -8.80737 0 
10.7044 -8.80754 0 10.6981 -8.80764 0 10.6918 -8.80769 0 
10.6856 -8.8077 0 10.6794 -8.80764 0 10.6733 -8.80753 0 
10.6674 -8.80736 0 10.6615 -8.80714 0 10.6556 -8.80686 0 
10.6499 -8.80652 0 10.6442 -8.80613 0 10.6386 -8.80569 0 
10.6332 -8.80517 0 10.6278 -8.80461 0 10.6224 -8.80399 0 
10.6172 -8.80332 0 10.612 -8.8026 0 10.6069 -8.80182 0 
10.6018 -8.80099 0 10.5969 -8.80011 0 10.592 -8.79917 0 
10.5872 -8.79817 0 10.5826 -8.79711 0 10.5779 -8.796 0 
10.5733 -8.79485 0 10.5689 -8.79364 0 10.5644 -8.79238 0 
10.5601 -8.79106 0 10.5558 -8.78969 0 10.5516 -8.78827 0 
10.5475 -8.78679 0 10.5435 -8.78527 0 10.5395 -8.78369 0 
10.5357 -8.78204 0 10.5319 -8.78035 0 10.5281 -8.77862 0 
10.5245 -8.77683 0 10.5209 -8.77499 0 10.5173 -8.7731 0 
10.5139 -8.77116 0 10.5105 -8.76917 0 10.5072 -8.76712 0 
10.5039 -8.76503 0 10.5008 -8.76286 0 10.4977 -8.76067 0 
10.4947 -8.75842 0 10.4917 -8.75612 0 10.4889 -8.75378 0 
10.4861 -8.75138 0 10.4833 -8.74894 0 10.4806 -8.74644 0 
10.478 -8.7439 0 10.4755 -8.74131 0 10.473 -8.73867 0 
10.4707 -8.73596 0 10.4683 -8.73322 0 10.466 -8.73044 0 
10.4638 -8.7276 0 10.4617 -8.72472 0 10.4596 -8.72179 0 
10.4576 -8.71881 0 10.4557 -8.71579 0 10.4538 -8.71271 0 
10.452 -8.70959 0 10.4503 -8.70641 0 10.4486 -8.7032 0 
10.447 -8.69994 0 10.4455 -8.69663 0 10.444 -8.69328 0 
10.4426 -8.68989 0 10.4412 -8.68644 0 10.4399 -8.68296 0 
10.4387 -8.67942 0 10.4375 -8.67585 0 10.4364 -8.6722 0 
10.4354 -8.66853 0 10.4344 -8.66482 0 10.4335 -8.66107 0 
10.4326 -8.65726 0 10.4318 -8.65342 0 10.4311 -8.64953 0 
10.4304 -8.6456 0 10.4298 -8.64163 0 10.4292 -8.63761 0 
10.4287 -8.63355 0 10.4283 -8.62943 0 10.4279 -8.62528 0 
10.4276 -8.62109 0 10.4273 -8.61686 0 10.4271 -8.61259 0 
10.4269 -8.60828 0 10.4268 -8.60392 0 10.4268 -8.59953 0 
10.4268 -8.59509 0 10.4269 -8.59061 0 10.427 -8.58607 0 
10.4272 -8.58151 0 10.4274 -8.57691 0 10.4277 -8.57227 0 
10.4281 -8.5676 0 10.4285 -8.56287 0 10.4289 -8.55812 0 
10.4294 -8.55332 0 10.43 -8.54848 0 10.4306 -8.54361 0 
10.4312 -8.53869 0 10.432 -8.53372 0 10.4328 -8.52873 0 
10.4336 -8.5237 0 10.4345 -8.51864 0 10.4354 -8.51353 0 
10.4364 -8.50839 0 10.4374 -8.50321 0 10.4385 -8.498 0 
10.4396 -8.49275 0 10.4408 -8.48746 0 10.4421 -8.48211 0 
10.4433 -8.47675 0 10.4447 -8.47135 0 10.446 -8.46592 0 
10.4474 -8.46045 0 10.4489 -8.45495 0 10.4504 -8.44941 0 
10.452 -8.44384 0 10.4536 -8.43824 0 10.4553 -8.43259 0 
10.457 -8.4269 0 10.4588 -8.42118 0 10.4606 -8.41544 0 
10.4624 -8.40966 0 10.4643 -8.40385 0 10.4662 -8.39801 0 
10.4682 -8.39214 0 10.4702 -8.38622 0 10.4723 -8.38028 0 
10.4744 -8.37431 0 10.4766 -8.3683 0 10.4788 -8.36224 0 
10.4811 -8.35617 0 10.4834 -8.35007 0 10.4857 -8.34394 0 
10.4881 -8.33778 0 10.4905 -8.33158 0 10.4929 -8.32536 0 
10.4954 -8.3191 0 10.4979 -8.31282 0 10.5005 -8.3065 0 
10.5032 -8.30013 0 10.5059 -8.29376 0 10.5085 -8.28736 0 
10.5113 -8.28092 0 10.5141 -8.27446 0 10.5169 -8.26797 0 
10.5197 -8.26145 0 10.5226 -8.2549 0 10.5256 -8.24833 0 
10.5285 -8.24173 0 10.5315 -8.2351 0 10.5347 -8.22841 0 
10.5377 -8.22173 0 10.5408 -8.21501 0 10.544 -8.20828 0 
10.5472 -8.20151 0 10.5504 -8.19472 0 10.5537 -8.1879 0 
10.557 -8.18105 0 10.5603 -8.17419 0 10.5637 -8.16729 0 
10.5672 -8.16034 0 10.5706 -8.1534 0 10.5741 -8.14642 0 
10.5776 -8.13943 0 10.5811 -8.13241 0 10.5847 -8.12536 0 
10.5883 -8.1183 0 10.592 -8.1112 0 10.5956 -8.10408 0 
10.5993 -8.09694 0 10.6031 -8.08978 0 10.6069 -8.08257 0 
10.6107 -8.07536 0 10.6146 -8.06813 0 10.6184 -8.06087 0 
10.6223 -8.05359 0 10.6262 -8.04629 0 10.6302 -8.03897 0 
10.6342 -8.03163 0 10.6382 -8.02427 0 10.6422 -8.01688 0 
10.6464 -8.00945 0 10.6505 -8.00202 0 10.6546 -7.99457 0 
10.6588 -7.9871 0 10.663 -7.97961 0 10.6672 -7.9721 0 
10.6714 -7.96458 0 10.6757 -7.95703 0 10.68 -7.94946 0 
10.6843 -7.94187 0 10.6888 -7.93424 0 10.6931 -7.92661 0 
10.6975 -7.91897 0 10.702 -7.91131 0 10.7064 -7.90363 0 
10.7109 -7.89593 0 10.7154 -7.88821 0 10.72 -7.88047 0 
10.7245 -7.87272 0 10.7291 -7.86495 0 10.7337 -7.85716 0 
10.7384 -7.84933 0 10.7431 -7.84151 0 10.7478 -7.83367 0 
10.7525 -7.82582 0 10.7572 -7.81795 0 10.7619 -7.81006 0 
10.7667 -7.80216 0 10.7715 -7.79424 0 10.7763 -7.78631 0 
10.7812 -7.77836 0 10.7861 -7.77037 0 10.791 -7.76239 0 
10.7959 -7.7544 0 10.8008 -7.74639 0 10.8057 -7.73837 0 
10.8107 -7.73033 0 10.8157 -7.72228 0 10.8207 -7.71422 0 
10.8257 -7.70614 0 10.8308 -7.69804 0 10.8359 -7.68992 0 
10.841 -7.6818 0 10.8461 -7.67367 0 10.8512 -7.66552 0 
10.8564 -7.65737 0 10.8615 -7.6492 0 10.8667 -7.64102 0 
10.8719 -7.63282 0 10.8771 -7.62462 0 10.8824 -7.61641 0 
10.8876 -7.60818 0 10.8929 -7.59991 0 10.8982 -7.59166 0 
10.9035 -7.5834 0 10.9088 -7.57513 0 10.9142 -7.56684 0 
10.9195 -7.55855 0 10.9249 -7.55025 0 10.9303 -7.54193 0 
10.9356 -7.53361 0 10.9411 -7.52527 0 10.9466 -7.51691 0 
10.952 -7.50855 0 10.9574 -7.50019 0 10.9629 -7.49181 0 
10.9684 -7.48343 0 10.9739 -7.47505 0 10.9794 -7.46665 0 
10.9849 -7.45824 0 10.9905 -7.44983 0 10.996 -7.44141 0 
11.0016 -7.43298 0 11.0072 -7.42451 0 11.0128 -7.41607 0 
11.0184 -7.40761 0 11.024 -7.39915 0 11.0297 -7.39068 0 
11.0353 -7.38221 0 11.041 -7.37372 0 11.0466 -7.36523 0 
11.0523 -7.35674 0 11.058 -7.34823 0 11.0638 -7.3397 0 
11.0695 -7.33118 0 11.0752 -7.32266 0 11.0809 -7.31414 0 
11.0867 -7.3056 0 11.0924 -7.29707 0 11.0982 -7.28853 0 
11.104 -7.27998 0 11.1098 -7.27143 0 11.1155 -7.26286 0 
11.1213 -7.2543 0 11.1272 -7.24571 0 11.133 -7.23713 0 
11.1389 -7.22856 0 11.1447 -7.21998 0 11.1505 -7.21139 0 
11.1564 -7.2028 0 11.1623 -7.19421 0 11.1681 -7.18562 0 
11.174 -7.17702 0 11.1799 -7.16841 0 11.1859 -7.15978 0 
11.1917 -7.15117 0 11.1977 -7.14256 0 11.2036 -7.13394 0 
11.2095 -7.12532 0 11.2154 -7.1167 0 11.2214 -7.10808 0 
11.2273 -7.09946 0 11.2333 -7.09083 0 11.2392 -7.0822 0 
11.2452 -7.07357 0 11.2512 -7.06491 0 11.2572 -7.05627 0 
11.2632 -7.04764 0 11.2692 -7.039 0 11.2751 -7.03036 0 
11.2812 -7.02173 0 11.2871 -7.01308 0 11.2932 -7.00444 0 
11.2992 -6.9958 0 11.3052 -6.98715 0 11.3113 -6.97849 0 
11.3173 -6.96984 0 11.3233 -6.9612 0 11.3294 -6.95256 0 
11.3354 -6.94391 0 11.3414 -6.93527 0 11.3475 -6.92662 0 
11.3535 -6.91798 0 11.3596 -6.90934 0 11.3656 -6.90069 0 
11.3717 -6.89202 0 11.3778 -6.88338 0 11.3839 -6.87474 0 
11.3899 -6.86611 0 11.396 -6.85747 0 11.4021 -6.84883 0 
11.4082 -6.8402 0 11.4142 -6.83156 0 11.4203 -6.82293 0 
11.4264 -6.8143 0 11.4325 -6.80567 0 11.4386 -6.79702 0 
11.4447 -6.7884 0 11.4508 -6.77977 0 11.4569 -6.77116 0 
11.463 -6.76254 0 11.4691 -6.75392 0 11.4752 -6.74531 0 
11.4813 -6.7367 0 11.4874 -6.7281 0 11.4935 -6.71949 0 
11.4996 -6.71086 0 11.5058 -6.70227 0 11.5119 -6.69367 0 
11.518 -6.68508 0 11.5241 -6.67649 0 11.5302 -6.66791 0 
11.5363 -6.65933 0 11.5424 -6.65075 0 11.5485 -6.64218 0 
11.5546 -6.63361 0 11.5607 -6.62505 0 11.5669 -6.61646 0 
11.5729 -6.6079 0 11.5791 -6.59935 0 11.5852 -6.5908 0 
11.5913 -6.58226 0 11.5974 -6.57372 0 11.6035 -6.56519 0 
11.6096 -6.55666 0 11.6157 -6.54813 0 11.6218 -6.53961 0 
11.6279 -6.53107 0 11.634 -6.52256 0 11.6401 -6.51405 0 
11.6462 -6.50556 0 11.6523 -6.49706 0 11.6584 -6.48857 0 
11.6645 -6.48009 0 11.6706 -6.47161 0 11.6766 -6.46314 0 
11.6827 -6.45467 0 11.6889 -6.44619 0 11.695 -6.43774 0 
11.701 -6.42928 0 11.7071 -6.42084 0 11.7132 -6.41241 0 
11.7192 -6.40397 0 11.7253 -6.39555 0 11.7314 -6.38713 0 
11.7374 -6.37872 0 11.7435 -6.37032 0 11.7496 -6.36192 0 
11.7557 -6.35351 0 11.7617 -6.34512 0 11.7678 -6.33675 0 
11.7738 -6.32838 0 11.7799 -6.32001 0 11.7859 -6.31166 0 
11.7919 -6.30331 0 11.798 -6.29497 0 11.804 -6.28663 0 
11.81 -6.2783 0 11.8161 -6.26996 0 11.8221 -6.26165 0 
11.8281 -6.25334 0 11.8342 -6.24504 0 11.8402 -6.23676 0 
11.8462 -6.22848 0 11.8522 -6.2202 0 11.8582 -6.21193 0 
11.8642 -6.20368 0 11.8702 -6.19543 0 11.8761 -6.18718 0 
11.8822 -6.17893 0 11.8882 -6.1707 0 11.8942 -6.16249 0 
11.9001 -6.15428 0 11.9061 -6.14607 0 11.9121 -6.13788 0 
11.918 -6.1297 0 11.924 -6.12152 0 11.9299 -6.11336 0 
11.9359 -6.1052 0 11.9419 -6.09703 0 11.9478 -6.08889 0 
11.9537 -6.08076 0 11.9597 -6.07264 0 11.9656 -6.06452 0 
11.9715 -6.05642 0 11.9774 -6.04832 0 11.9833 -6.04024 0 
11.9892 -6.03216 0 11.9951 -6.02409 0 12.0011 -6.01601 0 
12.007 -6.00796 0 12.0129 -5.99993 0 12.0188 -5.9919 0 
12.0246 -5.98387 0 12.0305 -5.97586 0 12.0364 -5.96786 0 
12.0422 -5.95987 0 12.0481 -5.95188 0 12.0539 -5.94391 0 
12.0598 -5.93595 0 12.0657 -5.92797 0 12.0715 -5.92003 0 
12.0773 -5.9121 0 12.0832 -5.90418 0 12.089 -5.89626 0 
12.0948 -5.88836 0 12.1006 -5.88047 0 12.1064 -5.87258 0 
12.1122 -5.86471 0 12.118 -5.85684 0 12.1238 -5.84897 0 
12.1296 -5.84113 0 12.1354 -5.8333 0 12.1411 -5.82548 0 
12.1469 -5.81767 0 12.1527 -5.80987 0 12.1584 -5.80207 0 
12.1642 -5.7943 0 12.1699 -5.78653 0 12.1756 -5.77877 0 
12.1814 -5.77102 0 12.1872 -5.76327 0 12.1929 -5.75554 0 
12.1986 -5.74783 0 12.2043 -5.74012 0 12.21 -5.73242 0 
12.2157 -5.72474 0 12.2214 -5.71708 0 12.2271 -5.70941 0 
12.2327 -5.70176 0 12.2384 -5.69413 0 12.2441 -5.68648 0 
12.2498 -5.67886 0 12.2554 -5.67125 0 12.2611 -5.66366 0 
12.2667 -5.65608 0 12.2724 -5.6485 0 12.278 -5.64094 0 
12.2836 -5.63339 0 12.2893 -5.62586 0 12.2949 -5.61832 0 
12.3005 -5.61079 0 12.3061 -5.60328 0 12.3117 -5.59579 0 
12.3173 -5.58831 0 12.3229 -5.58084 0 12.3285 -5.57338 0 
12.334 -5.56593 0 12.3396 -5.5585 0 12.3452 -5.55107 0 
12.3507 -5.54366 0 12.3562 -5.53626 0 12.3618 -5.52885 0 
12.3674 -5.52147 0 12.3729 -5.5141 0 12.3784 -5.50675 0 
12.384 -5.49941 0 12.3895 -5.49208 0 12.395 -5.48476 0 
12.4004 -5.47745 0 12.4059 -5.47015 0 12.4114 -5.46287 0 
12.417 -5.45557 0 12.4224 -5.44832 0 12.4279 -5.44107 0 
12.4334 -5.43384 0 12.4388 -5.4266 0 12.4443 -5.4194 0 
12.4497 -5.4122 0 12.4552 -5.405 0 12.4606 -5.39782 0 
12.466 -5.39066 0 12.4715 -5.38351 0 12.4769 -5.37636 0 
12.4823 -5.36923 0 12.4877 -5.36211 0 12.4931 -5.355 0 
12.4985 -5.34791 0 12.5039 -5.34083 0 12.5092 -5.33376 0 
12.5146 -5.3267 0 12.52 -5.31965 0 12.5254 -5.31263 0 
12.5307 -5.30561 0 12.536 -5.29859 0 12.5414 -5.2916 0 
12.5468 -5.28462 0 12.5521 -5.27764 0 12.5574 -5.27068 0 
12.5627 -5.26374 0 12.5681 -5.2568 0 12.5734 -5.24988 0 
12.5786 -5.24296 0 12.584 -5.23606 0 12.5893 -5.22918 0 
12.5945 -5.2223 0 12.5998 -5.21544 0 12.6051 -5.2086 0 
12.6104 -5.20176 0 12.6156 -5.19493 0 12.6209 -5.18812 0 
12.6261 -5.18132 0 12.6314 -5.17454 0 12.6366 -5.16776 0 
12.6418 -5.16099 0 12.6471 -5.15425 0 12.6523 -5.14751 0 
12.6575 -5.14079 0 12.6627 -5.13408 0 12.6679 -5.12737 0 
12.6731 -5.12068 0 12.6783 -5.11401 0 12.6835 -5.10734 0 
12.6887 -5.1007 0 12.6939 -5.09406 0 12.6991 -5.08743 0 
12.7042 -5.08082 0 12.7094 -5.07422 0 12.7145 -5.06763 0 
12.7197 -5.06106 0 12.7248 -5.05449 0 12.73 -5.04794 0 
12.7351 -5.04141 0 12.7402 -5.03488 0 12.7453 -5.02837 0 
12.7505 -5.02187 0 12.7556 -5.01538 0 12.7607 -5.00891 0 
12.7658 -5.00244 0 12.7709 -4.99599 0 12.776 -4.98956 0 
12.7811 -4.98313 0 12.7861 -4.97672 0 12.7912 -4.97032 0 
12.7963 -4.96393 0 12.8014 -4.95756 0 12.8064 -4.95119 0 
12.8115 -4.94485 0 12.8165 -4.9385 0 12.8215 -4.93218 0 
12.8266 -4.92587 0 12.8316 -4.91957 0 12.8366 -4.91328 0 
12.8417 -4.907 0 12.8467 -4.90074 0 12.8517 -4.8945 0 
12.8567 -4.88826 0 12.8617 -4.88204 0 12.8667 -4.87582 0 
12.8717 -4.86963 0 12.8767 -4.86344 0 12.8817 -4.85726 0 
12.8867 -4.85111 0 12.8916 -4.84495 0 12.8966 -4.83881 0 
12.9016 -4.8327 0 12.9065 -4.82658 0 12.9115 -4.82049 0 
12.9164 -4.8144 0 12.9214 -4.80832 0 12.9263 -4.80226 0 
12.9313 -4.79621 0 12.9362 -4.79017 0 12.9411 -4.78415 0 
12.9461 -4.77815 0 12.951 -4.77214 0 12.9559 -4.76615 0 
12.9608 -4.76018 0 12.9657 -4.75422 0 12.9706 -4.74827 0 
12.9755 -4.74233 0 12.9804 -4.73641 0 12.9853 -4.73049 0 
12.9902 -4.72459 0 12.995 -4.7187 0 12.9999 -4.71283 0 
13.0048 -4.70697 0 13.0097 -4.70112 0 13.0145 -4.69528 0 
13.0194 -4.68946 0 13.0242 -4.68364 0 13.0291 -4.67784 0 
13.0339 -4.67206 0 13.0388 -4.66628 0 13.0436 -4.66052 0 
13.0485 -4.65477 0 13.0533 -4.64903 0 13.0581 -4.64331 0 
13.063 -4.63759 0 13.0678 -4.63189 0 13.0726 -4.6262 0 
13.0774 -4.62052 0 13.0822 -4.61486 0 13.087 -4.60921 0 
13.0918 -4.60357 0 13.0966 -4.59794 0 13.1014 -4.59232 0 
13.1062 -4.58672 0 13.111 -4.58113 0 13.1158 -4.57555 0 
13.1206 -4.56998 0 13.1253 -4.56443 0 13.1301 -4.55889 0 
13.1349 -4.55336 0 13.1397 -4.54784 0 13.1444 -4.54233 0 
13.1492 -4.53684 0 13.1539 -4.53136 0 13.1587 -4.52589 0 
13.1634 -4.52044 0 13.1682 -4.51499 0 13.1729 -4.50956 0 
13.1777 -4.50414 0 13.1824 -4.49873 0 13.1871 -4.49333 0 
13.1919 -4.48795 0 13.1966 -4.48258 0 13.2013 -4.47722 0 
13.2061 -4.47187 0 13.2108 -4.46653 0 13.2155 -4.46121 0 
13.2202 -4.45589 0 13.2249 -4.4506 0 13.2296 -4.44531 0 
13.2343 -4.44003 0 13.239 -4.43476 0 13.2437 -4.42951 0 
13.2484 -4.42428 0 13.2531 -4.41905 0 13.2578 -4.41383 0 
13.2625 -4.40862 0 13.2672 -4.40343 0 13.2719 -4.39825 0 
13.2766 -4.39309 0 13.2812 -4.38793 0 13.2859 -4.38278 0 
13.2906 -4.37765 0 13.2953 -4.37253 0 13.2999 -4.36741 0 
13.3046 -4.36232 0 13.3093 -4.35723 0 13.3139 -4.35216 0 
13.3186 -4.3471 0 13.3233 -4.34205 0 13.3279 -4.33701 0 
13.3326 -4.33198 0 13.3372 -4.32697 0 13.3419 -4.32196 0 
13.3465 -4.31697 0 13.3512 -4.31199 0 13.3558 -4.30702 0 
13.3605 -4.30206 0 13.3651 -4.29711 0 13.3698 -4.29218 0 
13.3744 -4.28726 0 13.3791 -4.28235 0 13.3837 -4.27745 0 
13.3883 -4.27256 0 13.3929 -4.26769 0 13.3976 -4.26282 0 
13.4022 -4.25797 0 13.4068 -4.25312 0 13.4114 -4.24829 0 
13.4161 -4.24347 0 13.4207 -4.23867 0 13.4253 -4.23387 0 
13.4299 -4.22908 0 13.4345 -4.22431 0 13.4392 -4.21955 0 
13.4438 -4.2148 0 13.4484 -4.21006 0 13.453 -4.20533 0 
13.4576 -4.20062 0 13.4622 -4.19591 0 13.4669 -4.19122 0 
13.4715 -4.18653 0 13.4761 -4.18186 0 13.4807 -4.17721 0 