# vtk DataFile Version 3.0
vtk output
ASCII
DATASET POLYDATA
POINTS 5000 float
5.50191 -33.035 0 8.88205 -32.8008 0 10.2922 -32.6925 0 
11.3765 -32.6059 0 12.2914 -32.5308 0 13.0976 -32.4632 0 
13.8263 -32.4011 0 14.496 -32.3434 0 15.1188 -32.2892 0 
15.7031 -32.2379 0 16.255 -32.1892 0 16.7793 -32.1425 0 
17.2795 -32.0979 0 17.7584 -32.0549 0 18.2184 -32.0135 0 
18.6616 -31.9735 0 19.0892 -31.9347 0 19.503 -31.8971 0 
19.904 -31.8607 0 20.2931 -31.8252 0 20.6714 -31.7907 0 
21.0396 -31.7571 0 21.3983 -31.7244 0 21.7481 -31.6924 0 
22.0898 -31.6611 0 22.4236 -31.6305 0 22.75 -31.6005 0 
23.0695 -31.5712 0 23.3824 -31.5425 0 23.6891 -31.5144 0 
23.9898 -31.4868 0 24.2848 -31.4596 0 24.5746 -31.433 0 
24.8591 -31.4069 0 25.1386 -31.3811 0 25.4135 -31.3558 0 
25.6838 -31.3309 0 25.9498 -31.3063 0 26.2115 -31.2822 0 
26.4692 -31.2584 0 26.7231 -31.2349 0 26.9732 -31.2118 0 
27.2197 -31.1889 0 27.4626 -31.1664 0 27.7022 -31.1442 0 
27.9386 -31.1222 0 28.1718 -31.1005 0 28.402 -31.079 0 
28.6291 -31.0578 0 28.8533 -31.0368 0 29.0749 -31.0161 0 
29.2937 -30.9955 0 29.5099 -30.9752 0 29.7234 -30.9551 0 
29.9345 -30.9352 0 30.1432 -30.9154 0 30.3495 -30.8959 0 
30.5535 -30.8765 0 30.7553 -30.8572 0 30.9549 -30.8381 0 
31.1524 -30.8192 0 31.3478 -30.8004 0 31.5412 -30.7818 0 
31.7326 -30.7633 0 31.9221 -30.7449 0 32.1097 -30.7267 0 
32.2954 -30.7086 0 32.4794 -30.6906 0 32.6615 -30.6726 0 
32.842 -30.6548 0 33.0208 -30.6371 0 33.1979 -30.6195 0 
33.3734 -30.602 0 33.5473 -30.5846 0 33.7197 -30.5673 0 
33.8905 -30.5501 0 34.06 -30.5329 0 34.2278 -30.5158 0 
34.3943 -30.4988 0 34.5594 -30.4818 0 34.7231 -30.4649 0 
34.8856 -30.4481 0 35.0466 -30.4313 0 35.2063 -30.4146 0 
35.3648 -30.3979 0 35.5221 -30.3813 0 35.678 -30.3648 0 
35.8328 -30.3483 0 35.9865 -30.3318 0 36.1389 -30.3153 0 
36.2903 -30.2989 0 36.4404 -30.2825 0 36.5895 -30.2662 0 
36.7375 -30.2499 0 36.8844 -30.2337 0 37.0303 -30.2174 0 
37.1751 -30.2012 0 37.3189 -30.1851 0 37.4617 -30.1689 0 
37.6036 -30.1527 0 37.7445 -30.1365 0 37.8844 -30.1204 0 
38.0234 -30.1043 0 38.1615 -30.0882 0 38.2986 -30.0722 0 
38.4349 -30.0561 0 38.5703 -30.0401 0 38.7048 -30.024 0 
38.8384 -30.008 0 38.9713 -29.9919 0 39.1033 -29.9758 0 
39.2344 -29.9598 0 39.3648 -29.9437 0 39.4943 -29.9277 0 
39.6231 -29.9116 0 39.7512 -29.8956 0 39.8784 -29.8795 0 
40.0049 -29.8635 0 40.1307 -29.8474 0 40.2557 -29.8314 0 
40.38 -29.8152 0 40.5036 -29.7991 0 40.6265 -29.783 0 
40.7487 -29.7669 0 40.8702 -29.7507 0 40.9911 -29.7346 0 
41.1113 -29.7184 0 41.2308 -29.7023 0 41.3496 -29.6861 0 
41.4679 -29.6698 0 41.5855 -29.6536 0 41.7025 -29.6373 0 
41.8189 -29.621 0 41.9346 -29.6047 0 42.0498 -29.5884 0 
42.1644 -29.5721 0 42.2784 -29.5557 0 42.3918 -29.5393 0 
42.5046 -29.5229 0 42.6168 -29.5065 0 42.7286 -29.4901 0 
42.8397 -29.4735 0 42.9504 -29.457 0 43.0604 -29.4404 0 
43.17 -29.4239 0 43.279 -29.4073 0 43.3875 -29.3907 0 
43.4955 -29.374 0 43.603 -29.3573 0 43.7099 -29.3406 0 
43.8164 -29.3239 0 43.9224 -29.307 0 44.0279 -29.2902 0 
44.133 -29.2734 0 44.2375 -29.2565 0 44.3416 -29.2396 0 
44.4451 -29.2227 0 44.5483 -29.2057 0 44.651 -29.1887 0 
44.7532 -29.1717 0 44.8551 -29.1547 0 44.9565 -29.1376 0 
45.0574 -29.1203 0 45.1579 -29.1031 0 45.2579 -29.0859 0 
45.3576 -29.0687 0 45.4568 -29.0514 0 45.5557 -29.0341 0 
45.654 -29.0167 0 45.7521 -28.9994 0 45.8497 -28.9819 0 
45.9469 -28.9645 0 46.0437 -28.9469 0 46.1401 -28.9293 0 
46.2362 -28.9117 0 46.3318 -28.8941 0 46.4271 -28.8765 0 
46.522 -28.8588 0 46.6166 -28.8411 0 46.7107 -28.8233 0 
46.8045 -28.8055 0 46.898 -28.7876 0 46.991 -28.7697 0 
47.0838 -28.7517 0 47.1762 -28.7337 0 47.2683 -28.7157 0 
47.3599 -28.6977 0 47.4513 -28.6796 0 47.5423 -28.6614 0 
47.633 -28.6433 0 47.7234 -28.6251 0 47.8133 -28.6068 0 
47.903 -28.5885 0 47.9925 -28.5701 0 48.0815 -28.5517 0 
48.1703 -28.5333 0 48.2587 -28.5148 0 48.3468 -28.4963 0 
48.4346 -28.4778 0 48.5221 -28.4592 0 48.6093 -28.4406 0 
48.6963 -28.4219 0 48.7829 -28.4032 0 48.8692 -28.3845 0 
48.9552 -28.3656 0 49.041 -28.3468 0 49.1264 -28.3279 0 
49.2115 -28.309 0 49.2964 -28.29 0 49.381 -28.271 0 
49.4653 -28.252 0 49.5494 -28.2329 0 49.6331 -28.2138 0 
49.7166 -28.1946 0 49.7998 -28.1753 0 49.8828 -28.1561 0 
49.9655 -28.1368 0 50.0479 -28.1175 0 50.1301 -28.0981 0 
50.212 -28.0787 0 50.2937 -28.0592 0 50.375 -28.0397 0 
50.4562 -28.0202 0 50.5371 -28.0006 0 50.6178 -27.9809 0 
50.6981 -27.9612 0 50.7783 -27.9415 0 50.8582 -27.9218 0 
50.9379 -27.902 0 51.0174 -27.8822 0 51.0966 -27.8623 0 
51.1755 -27.8424 0 51.2543 -27.8224 0 51.3328 -27.8024 0 
51.411 -27.7824 0 51.4891 -27.7622 0 51.5668 -27.7421 0 
51.6445 -27.722 0 51.7218 -27.7018 0 51.7989 -27.6815 0 
51.8758 -27.6612 0 51.9525 -27.6409 0 52.029 -27.6206 0 
52.1052 -27.6002 0 52.1813 -27.5797 0 52.2571 -27.5591 0 
52.3327 -27.5386 0 52.4081 -27.518 0 52.4834 -27.4975 0 
52.5584 -27.4768 0 52.6331 -27.4561 0 52.7078 -27.4354 0 
52.7821 -27.4146 0 52.8563 -27.3938 0 52.9303 -27.373 0 
53.004 -27.3521 0 53.0777 -27.3311 0 53.151 -27.3101 0 
53.2242 -27.2891 0 53.2972 -27.2681 0 53.37 -27.247 0 
53.4426 -27.2259 0 53.515 -27.2048 0 53.5873 -27.1836 0 
53.6593 -27.1623 0 53.7312 -27.1411 0 53.8029 -27.1196 0 
53.8743 -27.0983 0 53.9457 -27.0769 0 54.0167 -27.0555 0 
54.0877 -27.034 0 54.1585 -27.0125 0 54.229 -26.991 0 
54.2995 -26.9694 0 54.3697 -26.9478 0 54.4397 -26.9262 0 
54.5096 -26.9045 0 54.5794 -26.8826 0 54.6488 -26.8609 0 
54.7182 -26.8391 0 54.7875 -26.8172 0 54.8565 -26.7954 0 
54.9253 -26.7735 0 54.994 -26.7515 0 55.0625 -26.7295 0 
55.1309 -26.7075 0 55.1991 -26.6855 0 55.2671 -26.6633 0 
55.335 -26.6411 0 55.4026 -26.619 0 55.4702 -26.5968 0 
55.5375 -26.5746 0 55.6048 -26.5523 0 55.6719 -26.53 0 
55.7388 -26.5076 0 55.8055 -26.4853 0 55.8721 -26.4629 0 
55.9385 -26.4403 0 56.0049 -26.4178 0 56.071 -26.3953 0 
56.1369 -26.3728 0 56.2028 -26.3502 0 56.2685 -26.3276 0 
56.334 -26.3049 0 56.3993 -26.2822 0 56.4646 -26.2595 0 
56.5297 -26.2368 0 56.5946 -26.214 0 56.6594 -26.1911 0 
56.7241 -26.1682 0 56.7886 -26.1453 0 56.8529 -26.1224 0 
56.9172 -26.0995 0 56.9812 -26.0765 0 57.0452 -26.0535 0 
57.1089 -26.0304 0 57.1725 -26.0074 0 57.2361 -25.9843 0 
57.2995 -25.961 0 57.3627 -25.9378 0 57.4258 -25.9146 0 
57.4888 -25.8914 0 57.5516 -25.8681 0 57.6142 -25.8448 0 
57.6768 -25.8215 0 57.7392 -25.7981 0 57.8015 -25.7747 0 
57.8636 -25.7513 0 57.9257 -25.7277 0 57.9875 -25.7042 0 
58.0493 -25.6807 0 58.1109 -25.6572 0 58.1724 -25.6336 0 
58.2337 -25.61 0 58.295 -25.5864 0 58.3561 -25.5627 0 
58.4171 -25.539 0 58.4779 -25.5153 0 58.5387 -25.4915 0 
58.5993 -25.4676 0 58.6597 -25.4438 0 58.7201 -25.42 0 
58.7803 -25.3961 0 58.8404 -25.3722 0 58.9003 -25.3483 0 
58.9602 -25.3243 0 59.0199 -25.3004 0 59.0795 -25.2763 0 
59.139 -25.2523 0 59.1984 -25.2281 0 59.2576 -25.204 0 
59.3168 -25.1799 0 59.3757 -25.1558 0 59.4347 -25.1316 0 
59.4934 -25.1074 0 59.552 -25.0832 0 59.6106 -25.0589 0 
59.669 -25.0346 0 59.7273 -25.0103 0 59.7854 -24.986 0 
59.8435 -24.9615 0 59.9015 -24.9371 0 59.9593 -24.9127 0 
60.017 -24.8883 0 60.0746 -24.8638 0 60.1322 -24.8393 0 
60.1895 -24.8148 0 60.2468 -24.7902 0 60.3039 -24.7657 0 
60.361 -24.7411 0 60.4179 -24.7163 0 60.4748 -24.6917 0 
60.5314 -24.667 0 60.588 -24.6423 0 60.6445 -24.6176 0 
60.7009 -24.5929 0 60.7571 -24.5681 0 60.8133 -24.5433 0 
60.8693 -24.5185 0 60.9253 -24.4937 0 60.9812 -24.4688 0 
61.0368 -24.4438 0 61.0925 -24.4189 0 61.148 -24.394 0 
61.2034 -24.369 0 61.2587 -24.3441 0 61.3139 -24.3191 0 
61.369 -24.294 0 61.424 -24.269 0 61.4789 -24.2439 0 
61.5337 -24.2188 0 61.5883 -24.1936 0 61.6429 -24.1685 0 
61.6974 -24.1433 0 61.7518 -24.1182 0 61.806 -24.093 0 
61.8602 -24.0677 0 61.9143 -24.0425 0 61.9682 -24.0172 0 
62.022 -23.992 0 62.0759 -23.9667 0 62.1295 -23.9412 0 
62.1831 -23.9159 0 62.2366 -23.8905 0 62.2899 -23.8651 0 
62.3431 -23.8397 0 62.3963 -23.8143 0 62.4494 -23.7888 0 
62.5023 -23.7634 0 62.5552 -23.7379 0 62.608 -23.7124 0 
62.6606 -23.6868 0 62.7132 -23.6612 0 62.7657 -23.6356 0 
62.8181 -23.61 0 62.8703 -23.5844 0 62.9225 -23.5588 0 
62.9746 -23.5332 0 63.0266 -23.5075 0 63.0786 -23.4818 0 
63.1304 -23.4561 0 63.182 -23.4304 0 63.2337 -23.4046 0 
63.2852 -23.3788 0 63.3366 -23.3531 0 63.388 -23.3273 0 
63.4392 -23.3015 0 63.4903 -23.2756 0 63.5414 -23.2498 0 
63.5924 -23.2239 0 63.6432 -23.1981 0 63.694 -23.1722 0 
63.7448 -23.1463 0 63.7953 -23.1202 0 63.8458 -23.0943 0 
63.8962 -23.0683 0 63.9466 -23.0423 0 63.9968 -23.0163 0 
64.047 -22.9903 0 64.097 -22.9643 0 64.1469 -22.9383 0 
64.1968 -22.9122 0 64.2466 -22.8861 0 64.2963 -22.8599 0 
64.3459 -22.8338 0 64.3954 -22.8077 0 64.4448 -22.7816 0 
64.4942 -22.7554 0 64.5434 -22.7293 0 64.5926 -22.7031 0 
64.6417 -22.6769 0 64.6906 -22.6507 0 64.7395 -22.6244 0 
64.7884 -22.5981 0 64.8371 -22.5718 0 64.8857 -22.5456 0 
64.9343 -22.5193 0 64.9827 -22.493 0 65.0311 -22.4667 0 
65.0794 -22.4403 0 65.1276 -22.414 0 65.1757 -22.3876 0 
65.2237 -22.3613 0 65.2717 -22.3349 0 65.3196 -22.3084 0 
65.3674 -22.282 0 65.4151 -22.2555 0 65.4627 -22.2291 0 
65.5101 -22.2026 0 65.5576 -22.1762 0 65.605 -22.1497 0 
65.6522 -22.1232 0 65.6995 -22.0967 0 65.7465 -22.0702 0 
65.7935 -22.0436 0 65.8405 -22.017 0 65.8874 -21.9905 0 
65.9341 -21.9639 0 65.9808 -21.9373 0 66.0274 -21.9108 0 
66.074 -21.8842 0 66.1204 -21.8575 0 66.1668 -21.8309 0 
66.2131 -21.8043 0 66.2593 -21.7776 0 66.3053 -21.7509 0 
66.3514 -21.7242 0 66.3974 -21.6975 0 66.4432 -21.6708 0 
66.489 -21.6441 0 66.5348 -21.6174 0 66.5803 -21.5907 0 
66.6259 -21.564 0 66.6713 -21.5372 0 66.7168 -21.5105 0 
66.7621 -21.4836 0 66.8073 -21.4568 0 66.8525 -21.43 0 
66.8975 -21.4032 0 66.9426 -21.3764 0 66.9874 -21.3496 0 
67.0322 -21.3228 0 67.077 -21.296 0 67.1217 -21.2691 0 
67.1663 -21.2423 0 67.2108 -21.2154 0 67.2553 -21.1884 0 
67.2997 -21.1615 0 67.3439 -21.1346 0 67.3882 -21.1077 0 
67.4322 -21.0808 0 67.4763 -21.0539 0 67.5203 -21.027 0 
67.5641 -21 0 67.608 -20.9731 0 67.6518 -20.9461 0 
67.6954 -20.9191 0 67.739 -20.8921 0 67.7825 -20.8651 0 
[...]
POINT_DATA 5000
VECTORS velocity double
14.0238 -8.48995 0 14.3065 -7.89039 0 14.4503 -7.64246 0 
14.568 -7.45497 0 14.6709 -7.29983 0 14.7633 -7.16604 0 
14.8477 -7.04793 0 14.9254 -6.94197 0 14.9975 -6.84593 0 
15.0647 -6.75823 0 15.1275 -6.67768 0 15.1863 -6.60335 0 
15.2414 -6.53455 0 15.2932 -6.4707 0 15.3418 -6.41131 0 
15.3876 -6.356 0 15.4305 -6.30445 0 15.4709 -6.25629 0 
15.5088 -6.21132 0 15.5444 -6.16931 0 15.5778 -6.13005 0 
15.6091 -6.09338 0 15.6383 -6.05913 0 15.6656 -6.02717 0 
15.6911 -5.99734 0 15.7148 -5.96956 0 15.7367 -5.94373 0 
15.757 -5.9197 0 15.7758 -5.89739 0 15.793 -5.87673 0 
15.8087 -5.85764 0 15.823 -5.84004 0 15.836 -5.82386 0 
15.8476 -5.80905 0 15.858 -5.79553 0 15.8671 -5.78325 0 
15.8751 -5.77217 0 15.8819 -5.76224 0 15.8875 -5.75338 0 
15.8921 -5.74557 0 15.8957 -5.73876 0 15.8982 -5.7329 0 
15.8997 -5.72797 0 15.9003 -5.72393 0 15.9 -5.72074 0 
15.8988 -5.71836 0 15.8967 -5.71677 0 15.8938 -5.71596 0 
15.89 -5.71585 0 15.8855 -5.71644 0 15.8802 -5.7177 0 
15.8741 -5.71961 0 15.8674 -5.72214 0 15.8599 -5.72527 0 
15.8518 -5.72897 0 15.843 -5.73323 0 15.8335 -5.73803 0 
15.8234 -5.74333 0 15.8128 -5.74916 0 15.8015 -5.75543 0 
15.7897 -5.76217 0 15.7773 -5.76935 0 15.7644 -5.77696 0 
15.751 -5.78497 0 15.737 -5.79338 0 15.7226 -5.80216 0 
15.7077 -5.81132 0 15.6924 -5.82082 0 15.6766 -5.83067 0 
15.6603 -5.84084 0 15.6437 -5.85132 0 15.6266 -5.86209 0 
15.6091 -5.87316 0 15.5913 -5.8845 0 15.5731 -5.89611 0 
15.5545 -5.90798 0 15.5355 -5.9201 0 15.5163 -5.93244 0 
15.4967 -5.94502 0 15.4767 -5.95783 0 15.4565 -5.97083 0 
15.436 -5.98404 0 15.4151 -5.99743 0 15.394 -6.01101 0 
15.3726 -6.02476 0 15.351 -6.03868 0 15.3291 -6.05276 0 
15.307 -6.067 0 15.2846 -6.08138 0 15.262 -6.09591 0 
15.2391 -6.11057 0 15.216 -6.12534 0 15.1928 -6.14025 0 
15.1693 -6.15526 0 15.1456 -6.17038 0 15.1218 -6.18561 0 
15.0977 -6.20093 0 15.0735 -6.21635 0 15.0491 -6.23185 0 
15.0246 -6.24745 0 14.9999 -6.26311 0 14.975 -6.27884 0 
14.95 -6.29464 0 14.9248 -6.31051 0 14.8996 -6.32642 0 
14.8741 -6.34241 0 14.8486 -6.35844 0 14.823 -6.3745 0 
14.7972 -6.39062 0 14.7713 -6.40678 0 14.7453 -6.42298 0 
14.7192 -6.4392 0 14.693 -6.45545 0 14.6667 -6.47172 0 
14.6404 -6.48802 0 14.6139 -6.50434 0 14.5874 -6.52066 0 
14.5608 -6.537 0 14.5341 -6.55335 0 14.5073 -6.5697 0 
14.4805 -6.58607 0 14.4537 -6.60243 0 14.4267 -6.61879 0 
14.3997 -6.63514 0 14.3727 -6.65148 0 14.3456 -6.66782 0 
14.3185 -6.68415 0 14.2913 -6.70045 0 14.2641 -6.71674 0 
14.2368 -6.73302 0 14.2096 -6.74927 0 14.1823 -6.76551 0 
14.1549 -6.78172 0 14.1276 -6.79789 0 14.1002 -6.81405 0 
14.0728 -6.83017 0 14.0454 -6.84626 0 14.018 -6.86231 0 
13.9905 -6.87832 0 13.9631 -6.8943 0 13.9356 -6.91025 0 
13.9082 -6.92614 0 13.8807 -6.94201 0 13.8533 -6.95783 0 
13.8258 -6.9736 0 13.7984 -6.98932 0 13.7709 -7.005 0 
13.7435 -7.02063 0 13.7161 -7.0362 0 13.6887 -7.05172 0 
13.6613 -7.06719 0 13.6339 -7.08262 0 13.6066 -7.09797 0 
13.5792 -7.11329 0 13.5519 -7.12853 0 13.5246 -7.14372 0 
13.4973 -7.15885 0 13.4701 -7.17392 0 13.4429 -7.18893 0 
13.4157 -7.20387 0 13.3885 -7.21876 0 13.3614 -7.23358 0 
13.3343 -7.24834 0 13.3072 -7.26302 0 13.2802 -7.27764 0 
13.2532 -7.29219 0 13.2263 -7.30668 0 13.1994 -7.3211 0 
13.1725 -7.33544 0 13.1457 -7.34972 0 13.1189 -7.36392 0 
13.0922 -7.37807 0 13.0656 -7.39212 0 13.0389 -7.4061 0 
13.0123 -7.42002 0 12.9858 -7.43387 0 12.9593 -7.44763 0 
12.9329 -7.46132 0 12.9065 -7.47493 0 12.8802 -7.48847 0 
12.8539 -7.50193 0 12.8276 -7.51532 0 12.8015 -7.52862 0 
12.7754 -7.54185 0 12.7494 -7.555 0 12.7234 -7.56808 0 
12.6975 -7.58105 0 12.6716 -7.59398 0 12.6457 -7.60681 0 
12.62 -7.61956 0 12.5943 -7.63223 0 12.5687 -7.64481 0 
12.5432 -7.65732 0 12.5177 -7.66975 0 12.4923 -7.68209 0 
12.4669 -7.69435 0 12.4416 -7.70653 0 12.4164 -7.71862 0 
12.3912 -7.73064 0 12.3661 -7.74257 0 12.3411 -7.75441 0 
12.3161 -7.76618 0 12.2912 -7.77786 0 12.2664 -7.78945 0 
12.2417 -7.80096 0 12.217 -7.81239 0 12.1925 -7.82372 0 
12.1679 -7.83498 0 12.1435 -7.84615 0 12.1191 -7.85724 0 
12.0948 -7.86823 0 12.0706 -7.87916 0 12.0464 -7.88998 0 
12.0223 -7.90073 0 11.9984 -7.91138 0 11.9744 -7.92196 0 
11.9506 -7.93245 0 11.9268 -7.94284 0 11.9031 -7.95316 0 
11.8795 -7.96339 0 11.8559 -7.97354 0 11.8325 -7.98359 0 
11.8091 -7.99357 0 11.7858 -8.00346 0 11.7626 -8.01325 0 
11.7394 -8.02296 0 11.7164 -8.03259 0 11.6934 -8.04213 0 
11.6705 -8.05159 0 11.6476 -8.06096 0 11.6249 -8.07024 0 
11.6022 -8.07944 0 11.5796 -8.08856 0 11.5571 -8.09758 0 
11.5347 -8.10652 0 11.5123 -8.11537 0 11.4901 -8.12413 0 
11.4679 -8.13282 0 11.4458 -8.14141 0 11.4238 -8.14992 0 
11.4019 -8.15834 0 11.38 -8.16669 0 11.3582 -8.17494 0 
11.3365 -8.1831 0 11.3149 -8.1912 0 11.2934 -8.19918 0 
11.272 -8.20709 0 11.2506 -8.21492 0 11.2293 -8.22267 0 
11.2082 -8.23033 0 11.1871 -8.2379 0 11.166 -8.24539 0 
11.1451 -8.25279 0 11.1242 -8.26011 0 11.1035 -8.26735 0 
11.0828 -8.2745 0 11.0622 -8.28156 0 11.0417 -8.28854 0 
11.0212 -8.29545 0 11.0009 -8.30226 0 10.9806 -8.30899 0 
10.9605 -8.31564 0 10.9403 -8.32221 0 10.9203 -8.3287 0 
10.9004 -8.3351 0 10.8805 -8.34142 0 10.8608 -8.34764 0 
10.8411 -8.3538 0 10.8215 -8.35987 0 10.802 -8.36586 0 
10.7826 -8.37177 0 10.7632 -8.37759 0 10.744 -8.38334 0 
10.7248 -8.38901 0 10.7057 -8.39459 0 10.6867 -8.40009 0 
10.6678 -8.40551 0 10.649 -8.41084 0 10.6302 -8.4161 0 
10.6115 -8.42128 0 10.5929 -8.42638 0 10.5744 -8.4314 0 
10.556 -8.43634 0 10.5377 -8.4412 0 10.5194 -8.44598 0 
10.5013 -8.45069 0 10.4832 -8.45531 0 10.4652 -8.45984 0 
10.4473 -8.46432 0 10.4295 -8.4687 0 10.4117 -8.47302 0 
10.3941 -8.47725 0 10.3764 -8.48141 0 10.3589 -8.48549 0 
10.3415 -8.48949 0 10.3242 -8.49341 0 10.3069 -8.49726 0 
10.2898 -8.50102 0 10.2727 -8.50472 0 10.2557 -8.50834 0 
10.2388 -8.51188 0 10.2219 -8.51536 0 10.2051 -8.51875 0 
10.1885 -8.52206 0 10.1719 -8.52531 0 10.1554 -8.52848 0 
10.1389 -8.53158 0 10.1226 -8.5346 0 10.1063 -8.53753 0 
10.0901 -8.54041 0 10.074 -8.54321 0 10.058 -8.54593 0 
10.0421 -8.54859 0 10.0262 -8.55117 0 10.0104 -8.55368 0 
9.99469 -8.55612 0 9.97908 -8.55848 0 9.96352 -8.56078 0 
9.9481 -8.56298 0 9.93272 -8.56514 0 9.9174 -8.56722 0 
9.90216 -8.56923 0 9.88702 -8.57117 0 9.87196 -8.57303 0 
9.85696 -8.57483 0 9.84205 -8.57657 0 9.82723 -8.57822 0 
9.81246 -8.57982 0 9.79784 -8.58132 0 9.78325 -8.58278 0 
9.76872 -8.58416 0 9.75428 -8.58548 0 9.73989 -8.58673 0 
9.72563 -8.58791 0 9.71142 -8.58903 0 9.69728 -8.59008 0 
9.68322 -8.59106 0 9.66924 -8.59197 0 9.65533 -8.59282 0 
9.64155 -8.59359 0 9.62782 -8.5943 0 9.61414 -8.59495 0 
9.60056 -8.59553 0 9.58703 -8.59606 0 9.57359 -8.59651 0 
9.56021 -8.59691 0 9.54691 -8.59723 0 9.53371 -8.59749 0 
9.52056 -8.59769 0 9.50754 -8.59781 0 9.49454 -8.59789 0 
9.4816 -8.5979 0 9.46878 -8.59784 0 9.45598 -8.59773 0 
9.44331 -8.59755 0 9.43069 -8.59731 0 9.41813 -8.59701 0 
9.40565 -8.59665 0 9.39324 -8.59623 0 9.38092 -8.59575 0 
9.36869 -8.59519 0 9.35651 -8.59458 0 9.34439 -8.59392 0 
9.33235 -8.5932 0 9.32038 -8.59241 0 9.30846 -8.59157 0 
9.29662 -8.59067 0 9.28488 -8.58971 0 9.2732 -8.58869 0 
9.26156 -8.58762 0 9.25007 -8.58647 0 9.23859 -8.58528 0 
9.22719 -8.58403 0 9.21585 -8.58273 0 9.2046 -8.58136 0 
9.19341 -8.57994 0 9.18227 -8.57847 0 9.17122 -8.57694 0 
9.16023 -8.57535 0 9.14928 -8.57372 0 9.13844 -8.57202 0 
9.12773 -8.57025 0 9.11698 -8.56845 0 9.10634 -8.56659 0 
9.09578 -8.56467 0 9.08527 -8.5627 0 9.07482 -8.56068 0 
9.06442 -8.55861 0 9.05411 -8.55648 0 9.04386 -8.5543 0 
9.0337 -8.55207 0 9.02364 -8.54977 0 9.01358 -8.54743 0 
9.00358 -8.54504 0 8.99367 -8.54261 0 8.98384 -8.54011 0 
8.97404 -8.53757 0 8.96432 -8.53498 0 8.95466 -8.53234 0 
8.94509 -8.52965 0 8.93553 -8.52691 0 8.92611 -8.5241 0 
8.91673 -8.52126 0 8.90737 -8.51837 0 8.8981 -8.51543 0 
8.88892 -8.51244 0 8.87976 -8.50941 0 8.87068 -8.50633 0 
8.86165 -8.5032 0 8.85268 -8.50002 0 8.84379 -8.4968 0 
8.83496 -8.49353 0 8.82623 -8.49019 0 8.81751 -8.48683 0 
8.80886 -8.48342 0 8.80028 -8.47996 0 8.79174 -8.47646 0 
8.78326 -8.47292 0 8.77486 -8.46932 0 8.76648 -8.46569 0 
8.75818 -8.46201 0 8.74998 -8.45828 0 8.74183 -8.4545 0 
8.73374 -8.45068 0 8.72569 -8.44683 0 8.71768 -8.44293 0 
8.70973 -8.43899 0 8.70187 -8.435 0 8.69406 -8.43097 0 
8.68626 -8.4269 0 8.67858 -8.42279 0 8.67092 -8.41864 0 
8.66332 -8.41445 0 8.65583 -8.41019 0 8.64836 -8.40592 0 
8.64094 -8.4016 0 8.63357 -8.39724 0 8.62627 -8.39285 0 
8.619 -8.38841 0 8.61181 -8.38393 0 8.60467 -8.37942 0 
8.59758 -8.37486 0 8.59054 -8.37027 0 8.58363 -8.36561 0 
8.57669 -8.36094 0 8.56983 -8.35623 0 8.56302 -8.35149 0 
8.55623 -8.34671 0 8.54955 -8.34188 0 8.54288 -8.33702 0 
8.53627 -8.33213 0 8.52974 -8.3272 0 8.52323 -8.32223 0 
8.51684 -8.3172 0 8.51045 -8.31216 0 8.50411 -8.30708 0 
8.49782 -8.30197 0 8.49158 -8.29683 0 8.48538 -8.29164 0 
8.47927 -8.28642 0 8.47317 -8.28118 0 8.46715 -8.27589 0 
8.46118 -8.27057 0 8.45522 -8.26522 0 8.44939 -8.25981 0 
8.44356 -8.25439 0 8.43778 -8.24894 0 8.43204 -8.24345 0 
8.42639 -8.23793 0 8.42074 -8.23238 0 8.41514 -8.2268 0 
8.40963 -8.22119 0 8.40412 -8.21554 0 8.39869 -8.20986 0 
8.39337 -8.20413 0 8.388 -8.19839 0 8.3827 -8.19262 0 
8.37746 -8.18682 0 8.37227 -8.18099 0 8.36711 -8.17513 0 
8.36201 -8.16924 0 8.35694 -8.16332 0 8.35193 -8.15737 0 
8.34695 -8.15139 0 8.34202 -8.14538 0 8.33722 -8.13933 0 
8.33238 -8.13326 0 8.32758 -8.12717 0 8.32286 -8.12105 0 
8.31815 -8.1149 0 8.31349 -8.10872 0 8.30891 -8.10252 0 
8.30433 -8.09629 0 8.29983 -8.09003 0 8.29534 -8.08375 0 
8.29094 -8.07741 0 8.28657 -8.07108 0 8.28221 -8.06472 0 
8.27792 -8.05833 0 8.27365 -8.05191 0 8.26946 -8.04548 0 
8.26529 -8.03901 0 8.26115 -8.03252 0 8.25704 -8.026 0 
8.25301 -8.01947 0 8.24899 -8.01291 0 8.2451 -8.0063 0 
8.24116 -7.99969 0 8.23729 -7.99305 0 8.23344 -7.98639 0 
8.22966 -7.97972 0 8.22588 -7.97301 0 8.22216 -7.96628 0 
8.2185 -7.95953 0 8.21486 -7.95276 0 8.21124 -7.94597 0 
8.20776 -7.93913 0 8.20423 -7.93229 0 8.20075 -7.92543 0 
8.19731 -7.91855 0 8.1939 -7.91165 0 8.19053 -7.90472 0 
8.18721 -7.89778 0 8.18393 -7.89082 0 8.18067 -7.88383 0 
8.17746 -7.87683 0 8.17435 -7.86978 0 8.17122 -7.86274 0 
8.1681 -7.85567 0 8.16506 -7.84859 0 8.16204 -7.84149 0 
8.15903 -7.83436 0 8.1561 -7.82722 0 8.15317 -7.82006 0 
8.15028 -7.81288 0 8.14747 -7.80569 0 8.14465 -7.79847 0 
8.14193 -7.79122 0 8.1392 -7.78397 0 8.13649 -7.7767 0 
8.13384 -7.76941 0 8.13118 -7.76211 0 8.12859 -7.75479 0 
8.12605 -7.74746 0 8.1235 -7.7401 0 8.12103 -7.73274 0 
8.11856 -7.72535 0 8.11618 -7.71792 0 8.11382 -7.71051 0 
8.11145 -7.70308 0 8.10914 -7.69563 0 8.10685 -7.68817 0 
8.10457 -7.68068 0 8.10236 -7.67319 0 8.10018 -7.66569 0 
8.09801 -7.65816 0 8.09587 -7.65062 0 8.09385 -7.64305 0 
8.09179 -7.63548 0 8.08975 -7.6279 0 8.08776 -7.62031 0 
8.0858 -7.6127 0 8.08384 -7.60508 0 8.08196 -7.59745 0 
8.08008 -7.5898 0 8.07825 -7.58214 0 8.07645 -7.57447 0 
8.07466 -7.56678 0 8.07296 -7.55906 0 8.07125 -7.55135 0 
8.06954 -7.54363 0 8.06789 -7.5359 0 8.06625 -7.52815 0 
8.06465 -7.52039 0 8.06311 -7.51262 0 8.06157 -7.50484 0 
8.06003 -7.49705 0 8.05856 -7.48925 0 8.05717 -7.48141 0 
8.05573 -7.47359 0 8.05433 -7.46575 0 8.05295 -7.45791 0 
8.05162 -7.45005 0 8.05031 -7.44219 0 8.04904 -7.43432 0 
8.04777 -7.42643 0 8.04656 -7.41854 0 8.04536 -7.41063 0 
8.04419 -7.40272 0 8.04309 -7.39478 0 8.04199 -7.38685 0 
8.04088 -7.3789 0 8.03981 -7.37095 0 8.03879 -7.363 0 
8.03778 -7.35503 0 8.0368 -7.34706 0 8.03582 -7.33908 0 
8.0349 -7.33109 0 8.03398 -7.32309 0 8.03315 -7.31506 0 
8.0323 -7.30705 0 8.03147 -7.29903 0 8.03068 -7.29101 0 
8.02989 -7.28297 0 8.02916 -7.27493 0 8.02843 -7.26688 0 
8.02773 -7.25883 0 8.02706 -7.25077 0 8.02639 -7.2427 0 
8.02575 -7.23462 0 8.02522 -7.22652 0 8.02461 -7.21843 0 
8.02407 -7.21034 0 8.02354 -7.20225 0 8.02302 -7.19414 0 
8.02253 -7.18603 0 8.02207 -7.17792 0 8.02164 -7.1698 0 
8.02124 -7.16168 0 8.02083 -7.15354 0 8.02051 -7.14539 0 
8.02017 -7.13725 0 8.01985 -7.1291 0 8.01956 -7.12096 0 
8.01927 -7.11281 0 8.01902 -7.10465 0 8.01878 -7.09649 0 
8.01859 -7.08833 0 8.01838 -7.08015 0 8.01824 -7.07199 0 
8.01809 -7.06381 0 8.01803 -7.05561 0 8.0179 -7.04742 0 
8.01784 -7.03924 0 8.01778 -7.03105 0 8.01774 -7.02286 0 
8.01774 -7.01467 0 8.01773 -7.00647 0 8.01777 -6.99827 0 
8.01782 -6.99007 0 8.01786 -6.98186 0 8.01801 -6.97363 0 
8.01811 -6.96542 0 8.01826 -6.95721 0 8.01841 -6.949 0 
8.01856 -6.94078 0 8.01877 -6.93257 0 8.01898 -6.92435 0 
8.0192 -6.91613 0 8.01946 -6.90791 0 8.01971 -6.89968 0 
8.02004 -6.89144 0 8.02035 -6.88321 0 8.02069 -6.87498 0 
8.02104 -6.86676 0 8.0214 -6.85853 0 8.02178 -6.85031 0 
8.0222 -6.84208 0 8.0226 -6.83385 0 8.02306 -6.82562 0 
8.02352 -6.81739 0 8.02397 -6.80915 0 8.02452 -6.8009 0 
8.02504 -6.79267 0 8.02557 -6.78444 0 8.02613 -6.77622 0 
8.02671 -6.76799 0 8.02728 -6.75976 0 8.02789 -6.75153 0 
8.02851 -6.74331 0 8.02914 -6.73507 0 8.02979 -6.72685 0 
8.03051 -6.7186 0 8.03121 -6.71038 0 8.03191 -6.70215 0 
8.03263 -6.69393 0 8.03337 -6.68571 0 8.03415 -6.6775 0 
8.03491 -6.66927 0 8.0357 -6.66106 0 8.03652 -6.65284 0 
8.03733 -6.64463 0 8.03819 -6.63643 0 8.0391 -6.62819 0 
8.03995 -6.61998 0 8.04087 -6.61178 0 8.04176 -6.60358 0 
8.0427 -6.59538 0 8.04361 -6.58717 0 8.04459 -6.57899 0 
8.04556 -6.57079 0 8.04653 -6.5626 0 8.04755 -6.55441 0 
8.0486 -6.5462 0 8.04964 -6.53802 0 8.05066 -6.52984 0 
8.05175 -6.52167 0 8.05283 -6.51349 0 8.0539 -6.50532 0 
8.05502 -6.49716 0 8.05615 -6.48899 0 8.05729 -6.48083 0 
8.05843 -6.47267 0 8.05966 -6.4645 0 8.06085 -6.45635 0 
8.06202 -6.4482 0 8.06325 -6.44007 0 8.06448 -6.43193 0 
8.06569 -6.42379 0 8.06696 -6.41566 0 8.06822 -6.40754 0 
8.06951 -6.39941 0 8.07081 -6.3913 0 8.07212 -6.38319 0 
8.07349 -6.37505 0 8.07481 -6.36694 0 8.07618 -6.35885 0 
8.07754 -6.35075 0 8.0789 -6.34266 0 8.08031 -6.33457 0 
8.08171 -6.32649 0 8.08314 -6.31842 0 8.08455 -6.31034 0 
8.08599 -6.30227 0 8.0875 -6.29419 0 8.08899 -6.28614 0 
8.09046 -6.27809 0 8.09196 -6.27004 0 8.09349 -6.262 0 
8.095 -6.25397 0 8.09655 -6.24594 0 8.09807 -6.23791 0 
8.09966 -6.22989 0 8.10122 -6.22188 0 8.10279 -6.21386 0 
8.10445 -6.20585 0 8.10607 -6.19785 0 8.1077 -6.18986 0 
8.10932 -6.18188 0 8.11096 -6.1739 0 8.11264 -6.16593 0 
8.11429 -6.15796 0 8.11597 -6.14999 0 8.11768 -6.14204 0 
8.11938 -6.13409 0 8.12117 -6.12614 0 8.12288 -6.11819 0 
8.12464 -6.11027 0 8.1264 -6.10235 0 8.12817 -6.09444 0 
8.12994 -6.08652 0 8.13172 -6.07862 0 8.13353 -6.07072 0 
8.13532 -6.06283 0 8.13715 -6.05495 0 8.13904 -6.04706 0 
8.1409 -6.03919 0 8.14276 -6.03133 0 8.14464 -6.02348 0 
8.1465 -6.01563 0 8.14839 -6.00778 0 8.15031 -5.99996 0 
8.15221 -5.99212 0 8.15413 -5.98431 0 8.15607 -5.9765 0 
8.15801 -5.96869 0 8.16002 -5.96087 0 8.16199 -5.95308 0 
8.16396 -5.9453 0 8.16595 -5.93753 0 8.16796 -5.92976 0 
8.16997 -5.922 0 8.17199 -5.91425 0 8.174 -5.9065 0 
8.17604 -5.89877 0 8.17809 -5.89104 0 8.18021 -5.8833 0 
8.18229 -5.87559 0 8.18437 -5.86789 0 8.18645 -5.86018 0 
8.18855 -5.85249 0 8.19067 -5.84482 0 8.19278 -5.83714 0 
8.19491 -5.82947 0 8.19707 -5.82182 0 8.19921 -5.81417 0 
8.20137 -5.80653 0 8.2036 -5.79888 0 8.20578 -5.79126 0 
8.20798 -5.78364 0 8.21017 -5.77603 0 8.21237 -5.76843 0 
8.21459 -5.76084 0 8.21685 -5.75327 0 8.21909 -5.7457 0 
8.22131 -5.73812 0 8.22359 -5.73058 0 8.22591 -5.72301 0 
8.22817 -5.71546 0 8.23045 -5.70793 0 8.23275 -5.70041 0 
8.23507 -5.6929 0 8.23738 -5.6854 0 8.23968 -5.6779 0 
8.24204 -5.67042 0 8.24438 -5.66294 0 8.24671 -5.65547 0 
8.24914 -5.648 0 8.25148 -5.64054 0 8.25388 -5.6331 0 
8.25626 -5.62567 0 8.25867 -5.61825 0 8.26106 -5.61083 0 
8.26347 -5.60343 0 8.26591 -5.59604 0 8.26834 -5.58865 0 
8.27078 -5.58127 0 8.27322 -5.5739 0 8.27571 -5.56652 0 
8.27819 -5.55917 0 8.28066 -5.55183 0 8.28314 -5.5445 0 
8.28565 -5.53718 0 8.28815 -5.52987 0 8.29067 -5.52257 0 
8.29316 -5.51527 0 8.29569 -5.50799 0 8.29823 -5.50072 0 
8.30082 -5.49343 0 8.30337 -5.48618 0 8.30595 -5.47894 0 
8.30852 -5.4717 0 8.31107 -5.46447 0 8.31368 -5.45726 0 
8.31628 -5.45005 0 8.31887 -5.44285 0 8.32148 -5.43565 0 
8.32411 -5.42848 0 8.32676 -5.42131 0 8.3294 -5.41415 0 
8.33203 -5.407 0 8.33469 -5.39986 0 8.33735 -5.39273 0 
8.34004 -5.38561 0 8.34272 -5.3785 0 8.34539 -5.37139 0 
8.34808 -5.3643 0 8.35078 -5.35723 0 8.35352 -5.35016 0 
8.35623 -5.3431 0 8.35893 -5.33604 0 8.3617 -5.32901 0 
8.36444 -5.32198 0 8.36719 -5.31495 0 8.36994 -5.30794 0 
8.37272 -5.30095 0 8.37549 -5.29395 0 8.37827 -5.28697 0 
8.38105 -5.28 0 8.38385 -5.27304 0 8.38667 -5.26609 0 
8.38947 -5.25915 0 8.3923 -5.25222 0 8.39515 -5.24531 0 
8.39799 -5.2384 0 8.40081 -5.2315 0 8.40365 -5.22461 0 
8.40652 -5.21773 0 8.40941 -5.21087 0 8.41228 -5.20401 0 
8.41514 -5.19716 0 8.41806 -5.19033 0 8.42093 -5.1835 0 
8.42386 -5.17669 0 8.42677 -5.16988 0 8.42968 -5.16308 0 
8.43259 -5.15629 0 8.43554 -5.14953 0 8.43847 -5.14276 0 
8.44143 -5.13601 0 8.44441 -5.12927 0 8.44736 -5.12253 0 
8.45035 -5.11582 0 8.45332 -5.1091 0 8.45631 -5.1024 0 
8.45929 -5.09571 0 8.4623 -5.08903 0 8.46531 -5.08236 0 
8.46833 -5.0757 0 8.47136 -5.06905 0 8.47438 -5.06241 0 
8.47743 -5.05579 0 8.48048 -5.04917 0 8.48353 -5.04257 0 
8.48657 -5.03597 0 8.48966 -5.02939 0 8.49274 -5.02282 0 
8.49581 -5.01625 0 8.4989 -5.0097 0 8.50201 -5.00316 0 
8.50511 -4.99663 0 8.50824 -4.99011 0 8.51133 -4.98359 0 
8.51447 -4.9771 0 8.51759 -4.9706 0 8.52073 -4.96413 0 
8.52388 -4.95766 0 8.52703 -4.9512 0 8.5302 -4.94476 0 
8.53336 -4.93832 0 8.53653 -4.93189 0 8.53973 -4.92548 0 
8.54293 -4.91908 0 8.54613 -4.91269 0 8.54933 -4.90631 0 
8.55255 -4.89994 0 8.55575 -4.89357 0 8.55898 -4.88722 0 
8.56223 -4.88089 0 8.56547 -4.87456 0 8.56869 -4.86824 0 
8.57197 -4.86194 0 8.5752 -4.85564 0 8.5785 -4.84936 0 
8.58177 -4.84308 0 8.58504 -4.83682 0 8.58832 -4.83056 0 
8.59163 -4.82433 0 8.59492 -4.81809 0 8.59825 -4.81187 0 
8.60159 -4.80567 0 8.60488 -4.79946 0 8.60823 -4.79328 0 
8.61157 -4.7871 0 8.61493 -4.78094 0 8.61827 -4.77478 0 
8.62164 -4.76864 0 8.625 -4.7625 0 8.62837 -4.75638 0 
8.63174 -4.75026 0 8.63512 -4.74416 0 8.63854 -4.73808 0 
8.64194 -4.732 0 8.64536 -4.72593 0 8.64876 -4.71987 0 
8.65219 -4.71382 0 8.65561 -4.70778 0 8.65905 -4.70176 0 
8.66251 -4.69575 0 8.66596 -4.68974 0 8.66943 -4.68375 0 
8.67289 -4.67777 0 8.67637 -4.6718 0 8.67985 -4.66584 0 
8.68333 -4.65989 0 8.68681 -4.65394 0 8.69031 -4.64801 0 
8.69384 -4.6421 0 8.69735 -4.63619 0 8.70089 -4.6303 0 
8.70441 -4.62442 0 8.70795 -4.61854 0 8.71148 -4.61268 0 
8.71503 -4.60682 0 8.71858 -4.60098 0 8.72215 -4.59515 0 
8.72573 -4.58933 0 8.7293 -4.58352 0 8.7329 -4.57772 0 
8.73649 -4.57193 0 8.74009 -4.56616 0 8.74369 -4.56039 0 
8.74731 -4.55463 0 8.75091 -4.54889 0 8.75453 -4.54315 0 
8.75819 -4.53743 0 8.76183 -4.53172 0 8.76549 -4.52602 0 
8.76914 -4.52033 0 8.77281 -4.51465 0 8.77647 -4.50898 0 
8.78016 -4.50332 0 8.78383 -4.49767 0 8.78752 -4.49203 0 
8.79124 -4.48641 0 8.79494 -4.48079 0 8.79864 -4.47518 0 
8.80235 -4.46959 0 8.80609 -4.46401 0 8.80982 -4.45843 0 
8.81356 -4.45287 0 8.8173 -4.44732 0 8.82107 -4.44178 0 
8.82484 -4.43625 0 8.82862 -4.43073 0 8.83238 -4.42522 0 
8.83616 -4.41972 0 8.83996 -4.41424 0 8.84375 -4.40876 0 
8.84757 -4.40329 0 8.85137 -4.39784 0 8.85521 -4.39239 0 
8.85901 -4.38695 0 8.86286 -4.38153 0 8.86668 -4.37612 0 
8.87054 -4.37071 0 8.87441 -4.36533 0 8.87828 -4.35995 0 
8.88217 -4.35458 0 8.88604 -4.34922 0 8.88993 -4.34387 0 
8.89382 -4.33853 0 8.89773 -4.3332 0 8.90163 -4.32788 0 
8.90554 -4.32258 0 8.90945 -4.31728 0 8.91339 -4.31199 0 
8.91731 -4.30671 0 8.92125 -4.30145 0 8.92522 -4.2962 0 
8.92917 -4.29095 0 8.93315 -4.28572 0 8.93712 -4.2805 0 
8.94111 -4.27529 0 8.94509 -4.27009 0 8.9491 -4.2649 0 
8.95308 -4.25971 0 8.95711 -4.25454 0 8.96111 -4.24938 0 
8.96513 -4.24423 0 8.96919 -4.2391 0 8.97322 -4.23397 0 
8.97725 -4.22884 0 8.98131 -4.22373 0 8.98539 -4.21864 0 
8.98945 -4.21355 0 8.99354 -4.20848 0 8.99761 -4.20341 0 
9.00172 -4.19836 0 9.00581 -4.19331 0 9.00992 -4.18827 0 
9.01402 -4.18324 0 9.01815 -4.17823 0 9.0223 -4.17323 0 