# vtk DataFile Version 3.0
vtk output
ASCII
DATASET POLYDATA
POINTS 5000 float
0.655223 -30.3285 0 3.88374 -30.2827 0 5.22132 -30.2503 0 
6.24734 -30.2201 0 7.11193 -30.1912 0 7.87323 -30.1631 0 
8.56108 -30.1354 0 9.19323 -30.1083 0 9.78123 -30.0816 0 
10.3331 -30.0551 0 10.8547 -30.0289 0 11.3504 -30.003 0 
11.8238 -29.9772 0 12.2774 -29.9516 0 12.7136 -29.9262 0 
13.1342 -29.9009 0 13.5405 -29.8757 0 13.9341 -29.8507 0 
14.316 -29.8257 0 14.6871 -29.8009 0 15.0482 -29.7762 0 
15.4002 -29.7516 0 15.7436 -29.727 0 16.0789 -29.7026 0 
16.4069 -29.6782 0 16.7278 -29.6538 0 17.042 -29.6295 0 
17.35 -29.6053 0 17.6521 -29.5811 0 17.9487 -29.5571 0 
18.2399 -29.533 0 18.5259 -29.5091 0 18.8073 -29.4851 0 
19.0841 -29.4612 0 19.3564 -29.4374 0 19.6245 -29.4136 0 
19.8886 -29.3898 0 20.1489 -29.366 0 20.4054 -29.3424 0 
20.6583 -29.3187 0 20.9079 -29.2951 0 21.1541 -29.2715 0 
21.3971 -29.248 0 21.637 -29.2244 0 21.874 -29.201 0 
22.1081 -29.1775 0 22.3394 -29.154 0 22.568 -29.1305 0 
22.794 -29.1072 0 23.0174 -29.0838 0 23.2385 -29.0604 0 
23.4571 -29.0371 0 23.6734 -29.0138 0 23.8875 -28.9905 0 
24.0993 -28.9673 0 24.309 -28.944 0 24.5167 -28.9208 0 
24.7223 -28.8976 0 24.926 -28.8743 0 25.1277 -28.8511 0 
25.3276 -28.828 0 25.5257 -28.8048 0 25.722 -28.7817 0 
25.9165 -28.7586 0 26.1093 -28.7355 0 26.3005 -28.7124 0 
26.4901 -28.6893 0 26.678 -28.6662 0 26.8644 -28.6431 0 
27.0492 -28.62 0 27.2327 -28.597 0 27.4146 -28.5739 0 
27.595 -28.5509 0 27.7742 -28.5279 0 27.9519 -28.5049 0 
28.1282 -28.4819 0 28.3034 -28.4589 0 28.4771 -28.4359 0 
28.6496 -28.4129 0 28.8208 -28.3899 0 28.9909 -28.3669 0 
29.1598 -28.3439 0 29.3275 -28.321 0 29.4939 -28.298 0 
29.6593 -28.2751 0 29.8236 -28.2521 0 29.9867 -28.2292 0 
30.1487 -28.2063 0 30.3098 -28.1833 0 30.4697 -28.1603 0 
30.6287 -28.1374 0 30.7866 -28.1145 0 30.9435 -28.0916 0 
31.0995 -28.0686 0 31.2544 -28.0457 0 31.4085 -28.0228 0 
31.5616 -27.9999 0 31.7138 -27.977 0 31.865 -27.9541 0 
32.0154 -27.9311 0 32.165 -27.9082 0 32.3135 -27.8853 0 
32.4613 -27.8624 0 32.6083 -27.8395 0 32.7544 -27.8166 0 
32.8997 -27.7937 0 33.0442 -27.7708 0 33.1878 -27.7478 0 
33.3307 -27.7249 0 33.4729 -27.702 0 33.6143 -27.679 0 
33.7548 -27.6561 0 33.8947 -27.6332 0 34.0338 -27.6103 0 
34.1722 -27.5874 0 34.3099 -27.5645 0 34.4469 -27.5416 0 
34.5832 -27.5186 0 34.7188 -27.4957 0 34.8537 -27.4728 0 
34.9879 -27.4498 0 35.1215 -27.4269 0 35.2544 -27.4039 0 
35.3866 -27.381 0 35.5183 -27.3581 0 35.6493 -27.3351 0 
35.7797 -27.3122 0 35.9094 -27.2893 0 36.0384 -27.2663 0 
36.167 -27.2434 0 36.2949 -27.2204 0 36.4222 -27.1974 0 
36.549 -27.1744 0 36.6751 -27.1514 0 36.8008 -27.1285 0 
36.9258 -27.1055 0 37.0502 -27.0825 0 37.1742 -27.0596 0 
37.2975 -27.0366 0 37.4203 -27.0136 0 37.5426 -26.9906 0 
37.6643 -26.9675 0 37.7856 -26.9445 0 37.9063 -26.9215 0 
38.0265 -26.8985 0 38.1461 -26.8755 0 38.2653 -26.8525 0 
38.384 -26.8295 0 38.5021 -26.8065 0 38.6198 -26.7834 0 
38.737 -26.7604 0 38.8537 -26.7373 0 38.9699 -26.7142 0 
39.0857 -26.6912 0 39.201 -26.6681 0 39.3158 -26.6451 0 
39.4301 -26.622 0 39.5441 -26.599 0 39.6575 -26.5759 0 
39.7705 -26.5528 0 39.8832 -26.5297 0 39.9953 -26.5067 0 
40.107 -26.4835 0 40.2182 -26.4604 0 40.329 -26.4373 0 
40.4395 -26.4142 0 40.5495 -26.3911 0 40.6591 -26.368 0 
40.7682 -26.3448 0 40.877 -26.3217 0 40.9853 -26.2986 0 
41.0933 -26.2754 0 41.2008 -26.2522 0 41.3079 -26.2291 0 
41.4148 -26.2059 0 41.5212 -26.1827 0 41.6272 -26.1596 0 
41.7328 -26.1364 0 41.838 -26.1132 0 41.9428 -26.0901 0 
42.0473 -26.0669 0 42.1514 -26.0437 0 42.2551 -26.0205 0 
42.3585 -25.9972 0 42.4615 -25.974 0 42.5642 -25.9508 0 
42.6664 -25.9275 0 42.7684 -25.9043 0 42.87 -25.8811 0 
42.9712 -25.8579 0 43.0722 -25.8346 0 43.1727 -25.8114 0 
43.2729 -25.7881 0 43.3728 -25.7647 0 43.4723 -25.7415 0 
43.5715 -25.7182 0 43.6704 -25.6949 0 43.769 -25.6717 0 
43.8672 -25.6484 0 43.9651 -25.6251 0 44.0626 -25.6018 0 
44.1599 -25.5785 0 44.2569 -25.5552 0 44.3535 -25.5318 0 
44.4498 -25.5084 0 44.5458 -25.4851 0 44.6415 -25.4618 0 
44.7369 -25.4384 0 44.832 -25.4151 0 44.9268 -25.3917 0 
45.0212 -25.3684 0 45.1155 -25.345 0 45.2093 -25.3216 0 
45.303 -25.2983 0 45.3962 -25.2748 0 45.4893 -25.2514 0 
45.582 -25.228 0 45.6744 -25.2046 0 45.7666 -25.1812 0 
45.8584 -25.1578 0 45.9501 -25.1344 0 46.0413 -25.111 0 
46.1324 -25.0875 0 46.2232 -25.0641 0 46.3137 -25.0406 0 
46.4039 -25.0171 0 46.4938 -24.9937 0 46.5835 -24.9702 0 
46.6729 -24.9468 0 46.7621 -24.9233 0 46.851 -24.8998 0 
46.9396 -24.8764 0 47.028 -24.8529 0 47.1161 -24.8294 0 
47.2039 -24.8059 0 47.2915 -24.7823 0 47.3789 -24.7588 0 
47.466 -24.7353 0 47.5528 -24.7118 0 47.6393 -24.6882 0 
47.7257 -24.6647 0 47.8118 -24.6412 0 47.8976 -24.6176 0 
47.9832 -24.5941 0 48.0686 -24.5706 0 48.1537 -24.5469 0 
48.2385 -24.5233 0 48.3232 -24.4998 0 48.4076 -24.4762 0 
48.4918 -24.4526 0 48.5757 -24.429 0 48.6594 -24.4055 0 
48.7428 -24.3819 0 48.8261 -24.3583 0 48.9091 -24.3347 0 
48.9918 -24.3111 0 49.0744 -24.2873 0 49.1567 -24.2637 0 
49.2388 -24.2401 0 49.3207 -24.2165 0 49.4023 -24.1928 0 
49.4837 -24.1692 0 49.565 -24.1455 0 49.646 -24.1219 0 
49.7268 -24.0982 0 49.8073 -24.0746 0 49.8877 -24.0508 0 
49.9678 -24.0271 0 50.0477 -24.0035 0 50.1274 -23.9798 0 
50.2069 -23.9561 0 50.2862 -23.9324 0 50.3652 -23.9087 0 
50.4442 -23.885 0 50.5229 -23.8613 0 50.6012 -23.8376 0 
50.6795 -23.8139 0 50.7576 -23.7901 0 50.8354 -23.7663 0 
50.9131 -23.7426 0 50.9905 -23.7189 0 51.0677 -23.6951 0 
51.1447 -23.6714 0 51.2216 -23.6476 0 51.2983 -23.6239 0 
51.3748 -23.6001 0 51.451 -23.5763 0 51.527 -23.5525 0 
51.6029 -23.5287 0 51.6786 -23.5049 0 51.7541 -23.4811 0 
51.8293 -23.4573 0 51.9045 -23.4335 0 51.9794 -23.4097 0 
52.0542 -23.3859 0 52.1286 -23.3621 0 52.203 -23.3383 0 
52.2772 -23.3144 0 52.3512 -23.2906 0 52.425 -23.2668 0 
52.4986 -23.2429 0 52.5721 -23.2191 0 52.6454 -23.1952 0 
52.7184 -23.1714 0 52.7913 -23.1476 0 52.864 -23.1237 0 
52.9366 -23.0998 0 53.0089 -23.076 0 53.0811 -23.052 0 
53.1531 -23.0281 0 53.225 -23.0043 0 53.2966 -22.9804 0 
53.3681 -22.9565 0 53.4395 -22.9326 0 53.5106 -22.9087 0 
53.5816 -22.8848 0 53.6523 -22.8609 0 53.723 -22.837 0 
53.7934 -22.813 0 53.8637 -22.7891 0 53.9339 -22.7652 0 
54.0038 -22.7413 0 54.0736 -22.7173 0 54.1432 -22.6934 0 
54.2127 -22.6695 0 54.282 -22.6455 0 54.3511 -22.6216 0 
54.4201 -22.5977 0 54.4889 -22.5736 0 54.5575 -22.5496 0 
54.626 -22.5257 0 54.6944 -22.5017 0 54.7626 -22.4778 0 
54.8305 -22.4538 0 54.8983 -22.4298 0 54.9661 -22.4058 0 
55.0336 -22.3819 0 55.101 -22.3579 0 55.1682 -22.3339 0 
55.2353 -22.3098 0 55.3021 -22.2858 0 55.3689 -22.2618 0 
55.4355 -22.2378 0 55.502 -22.2138 0 55.5682 -22.1898 0 
55.6344 -22.1658 0 55.7004 -22.1418 0 55.7662 -22.1177 0 
55.8319 -22.0937 0 55.8974 -22.0696 0 55.9628 -22.0455 0 
56.0281 -22.0215 0 56.0931 -21.9975 0 56.1582 -21.9734 0 
56.2229 -21.9494 0 56.2875 -21.9253 0 56.3521 -21.9013 0 
56.4164 -21.8772 0 56.4806 -21.8532 0 56.5447 -21.8291 0 
56.6086 -21.8049 0 56.6724 -21.7809 0 56.736 -21.7568 0 
56.7995 -21.7327 0 56.8629 -21.7086 0 56.9262 -21.6846 0 
56.9892 -21.6605 0 57.0521 -21.6364 0 57.1149 -21.6123 0 
57.1776 -21.5882 0 57.2401 -21.564 0 57.3025 -21.5399 0 
57.3647 -21.5158 0 57.4268 -21.4917 0 57.4887 -21.4676 0 
57.5505 -21.4435 0 57.6122 -21.4193 0 57.6738 -21.3952 0 
57.7352 -21.3711 0 57.7965 -21.347 0 57.8577 -21.3228 0 
57.9186 -21.2986 0 57.9796 -21.2745 0 58.0403 -21.2503 0 
58.1009 -21.2262 0 58.1613 -21.2021 0 58.2217 -21.1779 0 
58.282 -21.1538 0 58.342 -21.1296 0 58.402 -21.1055 0 
58.4618 -21.0813 0 58.5215 -21.057 0 58.5811 -21.0329 0 
58.6405 -21.0087 0 58.6998 -20.9845 0 58.7589 -20.9604 0 
58.8181 -20.9362 0 58.877 -20.912 0 58.9358 -20.8878 0 
58.9944 -20.8637 0 59.053 -20.8395 0 59.1114 -20.8152 0 
59.1697 -20.791 0 59.2279 -20.7668 0 59.2859 -20.7426 0 
59.3438 -20.7184 0 59.4016 -20.6942 0 59.4593 -20.67 0 
59.5168 -20.6458 0 59.5743 -20.6216 0 59.6315 -20.5974 0 
59.6887 -20.5732 0 59.7458 -20.5489 0 59.8028 -20.5247 0 
59.8595 -20.5004 0 59.9162 -20.4762 0 59.9728 -20.452 0 
60.0293 -20.4278 0 60.0856 -20.4035 0 60.1419 -20.3793 0 
60.198 -20.3551 0 60.2539 -20.3308 0 60.3098 -20.3065 0 
60.3655 -20.2823 0 60.4211 -20.258 0 60.4766 -20.2338 0 
60.5321 -20.2095 0 60.5873 -20.1853 0 60.6424 -20.161 0 
60.6976 -20.1368 0 60.7524 -20.1125 0 60.8072 -20.0883 0 
60.862 -20.064 0 60.9165 -20.0396 0 60.971 -20.0154 0 
61.0253 -19.9911 0 61.0796 -19.9669 0 61.1337 -19.9426 0 
61.1877 -19.9183 0 61.2416 -19.894 0 61.2954 -19.8698 0 
61.3491 -19.8455 0 61.4026 -19.8212 0 61.456 -19.7968 0 
61.5094 -19.7726 0 61.5626 -19.7483 0 61.6157 -19.724 0 
61.6688 -19.6997 0 61.7216 -19.6754 0 61.7744 -19.6511 0 
61.8271 -19.6268 0 61.8797 -19.6025 0 61.9322 -19.5782 0 
61.9845 -19.5538 0 62.0367 -19.5295 0 62.0889 -19.5052 0 
62.1409 -19.4809 0 62.1928 -19.4566 0 62.2447 -19.4323 0 
62.2963 -19.408 0 62.3479 -19.3837 0 62.3994 -19.3594 0 
62.4508 -19.3351 0 62.5021 -19.3107 0 62.5533 -19.2863 0 
62.6043 -19.262 0 62.6553 -19.2377 0 62.7062 -19.2134 0 
62.7568 -19.189 0 62.8075 -19.1647 0 62.8581 -19.1404 0 
62.9085 -19.1161 0 62.9589 -19.0917 0 63.0091 -19.0674 0 
63.0592 -19.043 0 63.1093 -19.0186 0 63.1591 -18.9943 0 
63.209 -18.97 0 63.2587 -18.9456 0 63.3083 -18.9213 0 
63.3578 -18.897 0 63.4072 -18.8726 0 63.4565 -18.8483 0 
63.5057 -18.8239 0 63.5549 -18.7996 0 63.6038 -18.7751 0 
63.6527 -18.7508 0 63.7016 -18.7264 0 63.7502 -18.7021 0 
63.7988 -18.6777 0 63.8474 -18.6534 0 63.8957 -18.629 0 
63.9441 -18.6047 0 63.9922 -18.5803 0 64.0404 -18.5559 0 
64.0885 -18.5315 0 64.1363 -18.5071 0 64.1842 -18.4828 0 
64.2318 -18.4584 0 64.2795 -18.434 0 64.327 -18.4097 0 
64.3744 -18.3853 0 64.4218 -18.3609 0 64.469 -18.3366 0 
64.5161 -18.3122 0 64.5632 -18.2878 0 64.6101 -18.2633 0 
64.657 -18.239 0 64.7037 -18.2146 0 64.7504 -18.1902 0 
64.7969 -18.1658 0 64.8434 -18.1415 0 64.8898 -18.1171 0 
64.936 -18.0927 0 64.9823 -18.0683 0 65.0284 -18.0439 0 
65.0743 -18.0195 0 65.1202 -17.9951 0 65.166 -17.9707 0 
[...]
POINT_DATA 5000
VECTORS velocity double
12.5019 -6.34919 0 13.0294 -5.92452 0 13.2714 -5.7594 0 
13.4628 -5.63868 0 13.6266 -5.54159 0 13.7719 -5.46 0 
13.9033 -5.38974 0 14.0238 -5.32819 0 14.1353 -5.27372 0 
14.2391 -5.22516 0 14.3362 -5.18164 0 14.4273 -5.1425 0 
14.5132 -5.10721 0 14.5942 -5.07537 0 14.6709 -5.04661 0 
14.7435 -5.02066 0 14.8122 -4.99731 0 14.8775 -4.97628 0 
14.9395 -4.95741 0 14.9984 -4.94056 0 15.0544 -4.92559 0 
15.1076 -4.91235 0 15.1582 -4.90076 0 15.2063 -4.89071 0 
15.252 -4.8821 0 15.2954 -4.87485 0 15.3366 -4.86893 0 
15.3757 -4.86419 0 15.4129 -4.86062 0 15.4481 -4.85813 0 
15.4814 -4.8567 0 15.513 -4.85626 0 15.5428 -4.85676 0 
15.571 -4.85817 0 15.5975 -4.86044 0 15.6225 -4.86353 0 
15.646 -4.86742 0 15.6679 -4.87207 0 15.6885 -4.87743 0 
15.7078 -4.88347 0 15.7256 -4.89018 0 15.7422 -4.89752 0 
15.7576 -4.90546 0 15.7717 -4.91399 0 15.7846 -4.92308 0 
15.7964 -4.93271 0 15.807 -4.94285 0 15.8165 -4.95351 0 
15.825 -4.96462 0 15.8325 -4.97619 0 15.8389 -4.9882 0 
15.8444 -5.00063 0 15.8489 -5.01347 0 15.8524 -5.02669 0 
15.8551 -5.04028 0 15.8568 -5.05424 0 15.8577 -5.06854 0 
15.8578 -5.08317 0 15.857 -5.09814 0 15.8554 -5.1134 0 
15.853 -5.12895 0 15.8499 -5.14478 0 15.846 -5.16088 0 
15.8414 -5.17723 0 15.8361 -5.19384 0 15.8301 -5.21069 0 
15.8234 -5.22777 0 15.816 -5.24506 0 15.808 -5.26258 0 
15.7994 -5.28028 0 15.7901 -5.29817 0 15.7802 -5.31625 0 
15.7698 -5.33449 0 15.7587 -5.35291 0 15.7471 -5.37149 0 
15.735 -5.39021 0 15.7223 -5.40909 0 15.709 -5.42809 0 
15.6953 -5.44723 0 15.6811 -5.46651 0 15.6663 -5.48589 0 
15.6511 -5.50539 0 15.6354 -5.52498 0 15.6193 -5.54467 0 
15.6027 -5.56446 0 15.5857 -5.58434 0 15.5682 -5.60429 0 
15.5503 -5.62432 0 15.5321 -5.64442 0 15.5134 -5.6646 0 
15.4943 -5.68484 0 15.4748 -5.70512 0 15.455 -5.72546 0 
15.4348 -5.74584 0 15.4143 -5.76627 0 15.3934 -5.78674 0 
15.3721 -5.80724 0 15.3506 -5.82777 0 15.3287 -5.84832 0 
15.3065 -5.86892 0 15.284 -5.88952 0 15.2612 -5.91013 0 
15.238 -5.93075 0 15.2146 -5.95139 0 15.191 -5.97202 0 
15.167 -5.99266 0 15.1428 -6.0133 0 15.1183 -6.03393 0 
15.0936 -6.05455 0 15.0686 -6.07517 0 15.0434 -6.09577 0 
15.018 -6.11635 0 14.9923 -6.13691 0 14.9664 -6.15745 0 
14.9402 -6.17796 0 14.9139 -6.19845 0 14.8873 -6.21891 0 
14.8606 -6.23933 0 14.8337 -6.25972 0 14.8065 -6.28006 0 
14.7792 -6.30038 0 14.7517 -6.32065 0 14.724 -6.34088 0 
14.6962 -6.36106 0 14.6682 -6.38119 0 14.64 -6.40127 0 
14.6116 -6.42131 0 14.5832 -6.44128 0 14.5545 -6.46119 0 
14.5258 -6.48106 0 14.4969 -6.50086 0 14.4678 -6.52061 0 
14.4386 -6.5403 0 14.4093 -6.55991 0 14.3799 -6.57947 0 
14.3503 -6.59895 0 14.3206 -6.61836 0 14.2909 -6.63771 0 
14.261 -6.65698 0 14.231 -6.67618 0 14.2009 -6.69531 0 
14.1707 -6.71436 0 14.1404 -6.73334 0 14.11 -6.75224 0 
14.0796 -6.77106 0 14.049 -6.78979 0 14.0184 -6.80845 0 
13.9877 -6.82703 0 13.9569 -6.84551 0 13.926 -6.86392 0 
13.8951 -6.88224 0 13.8642 -6.90048 0 13.8331 -6.91861 0 
13.802 -6.93668 0 13.7709 -6.95464 0 13.7396 -6.97252 0 
13.7084 -6.9903 0 13.677 -7.008 0 13.6457 -7.0256 0 
13.6143 -7.04311 0 13.5828 -7.06054 0 13.5513 -7.07786 0 
13.5198 -7.09509 0 13.4883 -7.11221 0 13.4567 -7.12924 0 
13.4251 -7.14617 0 13.3935 -7.16301 0 13.3618 -7.17976 0 
13.3301 -7.19639 0 13.2984 -7.21294 0 13.2667 -7.22937 0 
13.2349 -7.24572 0 13.2032 -7.26195 0 13.1715 -7.27808 0 
13.1397 -7.29412 0 13.1079 -7.31006 0 13.0761 -7.32589 0 
13.0443 -7.34162 0 13.0125 -7.35724 0 12.9807 -7.37275 0 
12.9489 -7.38817 0 12.9172 -7.40348 0 12.8854 -7.41868 0 
12.8536 -7.43378 0 12.8219 -7.44878 0 12.7901 -7.46367 0 
12.7584 -7.47844 0 12.7266 -7.49313 0 12.6949 -7.5077 0 
12.6633 -7.52216 0 12.6316 -7.53652 0 12.5999 -7.55076 0 
12.5683 -7.5649 0 12.5367 -7.57894 0 12.5051 -7.59286 0 
12.4736 -7.60668 0 12.442 -7.6204 0 12.4105 -7.634 0 
12.379 -7.6475 0 12.3476 -7.66089 0 12.3162 -7.67416 0 
12.2848 -7.68734 0 12.2535 -7.7004 0 12.2222 -7.71336 0 
12.1909 -7.7262 0 12.1597 -7.73894 0 12.1285 -7.75157 0 
12.0973 -7.76409 0 12.0662 -7.7765 0 12.0351 -7.78881 0 
12.0041 -7.801 0 11.9731 -7.8131 0 11.9422 -7.82507 0 
11.9113 -7.83695 0 11.8805 -7.8487 0 11.8497 -7.86036 0 
11.819 -7.87192 0 11.7883 -7.88334 0 11.7577 -7.89468 0 
11.7271 -7.9059 0 11.6965 -7.91703 0 11.6661 -7.92803 0 
11.6356 -7.93893 0 11.6053 -7.94973 0 11.575 -7.96041 0 
11.5448 -7.97098 0 11.5146 -7.98146 0 11.4844 -7.99183 0 
11.4544 -8.00209 0 11.4243 -8.01225 0 11.3944 -8.02229 0 
11.3645 -8.03223 0 11.3346 -8.04208 0 11.3049 -8.0518 0 
11.2752 -8.06142 0 11.2456 -8.07094 0 11.216 -8.08035 0 
11.1865 -8.08966 0 11.1571 -8.09886 0 11.1277 -8.10795 0 
11.0984 -8.11695 0 11.0692 -8.12584 0 11.04 -8.13463 0 
11.0109 -8.14331 0 10.9819 -8.1519 0 10.953 -8.16036 0 
10.9241 -8.16873 0 10.8953 -8.177 0 10.8665 -8.18518 0 
10.8378 -8.19325 0 10.8093 -8.2012 0 10.7807 -8.20908 0 
10.7523 -8.21683 0 10.7239 -8.22449 0 10.6956 -8.23205 0 
10.6674 -8.23951 0 10.6393 -8.24687 0 10.6112 -8.25412 0 
10.5832 -8.26128 0 10.5553 -8.26834 0 10.5274 -8.2753 0 
10.4997 -8.28216 0 10.472 -8.28893 0 10.4444 -8.2956 0 
10.4168 -8.30217 0 10.3894 -8.30864 0 10.3621 -8.31499 0 
10.3348 -8.32127 0 10.3075 -8.32745 0 10.2804 -8.33353 0 
10.2533 -8.33952 0 10.2264 -8.34541 0 10.1995 -8.35121 0 
10.1727 -8.35692 0 10.1459 -8.36252 0 10.1193 -8.36803 0 
10.0927 -8.37345 0 10.0663 -8.37876 0 10.0399 -8.38399 0 
10.0136 -8.38913 0 9.98729 -8.39418 0 9.96115 -8.39913 0 
9.9351 -8.40399 0 9.90909 -8.40876 0 9.8832 -8.41344 0 
9.85735 -8.41803 0 9.83163 -8.42252 0 9.80603 -8.42691 0 
9.78043 -8.43123 0 9.75497 -8.43546 0 9.72954 -8.4396 0 
9.70425 -8.44364 0 9.679 -8.44761 0 9.65383 -8.45148 0 
9.62876 -8.45527 0 9.60382 -8.45896 0 9.57892 -8.46257 0 
9.55415 -8.46608 0 9.52938 -8.46952 0 9.50476 -8.47287 0 
9.48022 -8.47613 0 9.45573 -8.47932 0 9.43133 -8.48242 0 
9.40707 -8.48542 0 9.38286 -8.48835 0 9.35874 -8.49119 0 
9.33466 -8.49396 0 9.31073 -8.49663 0 9.28688 -8.49921 0 
9.26309 -8.50172 0 9.2394 -8.50415 0 9.2158 -8.5065 0 
9.19225 -8.50877 0 9.1688 -8.51096 0 9.14544 -8.51306 0 
9.12218 -8.51509 0 9.09902 -8.51703 0 9.07591 -8.5189 0 
9.05293 -8.52067 0 9.03002 -8.52238 0 9.00716 -8.52401 0 
8.98439 -8.52557 0 8.96173 -8.52704 0 8.93916 -8.52844 0 
8.91665 -8.52976 0 8.89424 -8.53101 0 8.87193 -8.53217 0 
8.84968 -8.53327 0 8.82756 -8.53428 0 8.8055 -8.53522 0 
8.7835 -8.53609 0 8.7616 -8.53689 0 8.73976 -8.53761 0 
8.71807 -8.53826 0 8.69643 -8.53883 0 8.67485 -8.53934 0 
8.65337 -8.53977 0 8.63199 -8.54013 0 8.61067 -8.54042 0 
8.58949 -8.54062 0 8.56838 -8.54076 0 8.54732 -8.54084 0 
8.52637 -8.54084 0 8.50548 -8.54078 0 8.48469 -8.54064 0 
8.46396 -8.54044 0 8.44333 -8.54017 0 8.42281 -8.53983 0 
8.40234 -8.53943 0 8.38202 -8.53893 0 8.36172 -8.53839 0 
8.34148 -8.53779 0 8.32139 -8.53711 0 8.30132 -8.53638 0 
8.28139 -8.53557 0 8.26153 -8.53469 0 8.24172 -8.53376 0 
8.22202 -8.53276 0 8.20239 -8.5317 0 8.18286 -8.53057 0 
8.16342 -8.52936 0 8.14406 -8.5281 0 8.12475 -8.52679 0 
8.10555 -8.52541 0 8.08642 -8.52397 0 8.06734 -8.52247 0 
8.04837 -8.5209 0 8.02951 -8.51928 0 8.01071 -8.51759 0 
7.99197 -8.51585 0 7.97337 -8.51402 0 7.9548 -8.51216 0 
7.93634 -8.51023 0 7.91793 -8.50825 0 7.89964 -8.50621 0 
7.8814 -8.50411 0 7.86323 -8.50195 0 7.84517 -8.49974 0 
7.82716 -8.49747 0 7.80922 -8.49514 0 7.79139 -8.49276 0 
7.7737 -8.49029 0 7.75599 -8.4878 0 7.73839 -8.48525 0 
7.7209 -8.48264 0 7.70346 -8.47998 0 7.6861 -8.47727 0 
7.66879 -8.4745 0 7.65159 -8.47168 0 7.63445 -8.4688 0 
7.61742 -8.46587 0 7.60049 -8.46288 0 7.58359 -8.45984 0 
7.56675 -8.45676 0 7.55001 -8.45362 0 7.53338 -8.45043 0 
7.51677 -8.4472 0 7.50027 -8.44391 0 7.48383 -8.44057 0 
7.4675 -8.43718 0 7.45118 -8.43374 0 7.43502 -8.43023 0 
7.41892 -8.4267 0 7.40284 -8.42311 0 7.38686 -8.41948 0 
7.37099 -8.41579 0 7.35514 -8.41207 0 7.3394 -8.40829 0 
7.32372 -8.40447 0 7.3081 -8.4006 0 7.29259 -8.39668 0 
7.27714 -8.39272 0 7.2618 -8.38869 0 7.24648 -8.38464 0 
7.23126 -8.38054 0 7.2161 -8.37639 0 7.20101 -8.37221 0 
7.18598 -8.36798 0 7.17106 -8.3637 0 7.15615 -8.35938 0 
7.14135 -8.35502 0 7.12666 -8.35061 0 7.11203 -8.34615 0 
7.09746 -8.34166 0 7.08295 -8.33712 0 7.06851 -8.33255 0 
7.05413 -8.32794 0 7.03985 -8.32328 0 7.02563 -8.31858 0 
7.01144 -8.31385 0 6.99739 -8.30907 0 6.98336 -8.30425 0 
6.96939 -8.2994 0 6.95557 -8.29448 0 6.94177 -8.28955 0 
6.92803 -8.28457 0 6.91435 -8.27956 0 6.90078 -8.27451 0 
6.88722 -8.26942 0 6.87377 -8.2643 0 6.86038 -8.25913 0 
6.84705 -8.25393 0 6.83379 -8.2487 0 6.82067 -8.2434 0 
6.80752 -8.23809 0 6.79448 -8.23275 0 6.7815 -8.22737 0 
6.76854 -8.22195 0 6.75572 -8.2165 0 6.74293 -8.21102 0 
6.73019 -8.2055 0 6.71755 -8.19994 0 6.70493 -8.19435 0 
6.69246 -8.18871 0 6.68001 -8.18306 0 6.66762 -8.17737 0 
6.65528 -8.17165 0 6.64301 -8.16589 0 6.6308 -8.16011 0 
6.61868 -8.15429 0 6.60659 -8.14844 0 6.5946 -8.14256 0 
6.58266 -8.13665 0 6.57075 -8.1307 0 6.55898 -8.12471 0 
6.54722 -8.1187 0 6.53553 -8.11267 0 6.52389 -8.1066 0 
6.51236 -8.10051 0 6.50084 -8.09439 0 6.48938 -8.08823 0 
6.47802 -8.08205 0 6.46668 -8.07584 0 6.45544 -8.0696 0 
6.4443 -8.06332 0 6.43313 -8.05702 0 6.42207 -8.0507 0 
6.41106 -8.04435 0 6.40011 -8.03797 0 6.38922 -8.03157 0 
6.37839 -8.02514 0 6.36761 -8.01868 0 6.35689 -8.01219 0 
6.34623 -8.00568 0 6.33563 -7.99915 0 6.32517 -7.99257 0 
6.31468 -7.98598 0 6.30425 -7.97937 0 6.29391 -7.97273 0 
6.2836 -7.96607 0 6.27334 -7.95938 0 6.26318 -7.95268 0 
6.25303 -7.94594 0 6.24298 -7.93919 0 6.23295 -7.93241 0 
6.22301 -7.92558 0 6.21314 -7.91876 0 6.20327 -7.91191 0 
6.1935 -7.90504 0 6.18375 -7.89814 0 6.1741 -7.89123 0 
6.16449 -7.88429 0 6.15491 -7.87733 0 6.14538 -7.87034 0 
6.13595 -7.86334 0 6.12653 -7.85632 0 6.11725 -7.84926 0 
6.10794 -7.84219 0 6.09873 -7.8351 0 6.08953 -7.828 0 
6.08043 -7.82088 0 6.07134 -7.81373 0 6.0623 -7.80656 0 
6.05336 -7.79938 0 6.04444 -7.79218 0 6.03557 -7.78495 0 
6.02683 -7.77769 0 6.01807 -7.77043 0 6.00936 -7.76316 0 
6.00071 -7.75586 0 5.99211 -7.74855 0 5.98356 -7.74121 0 
5.97506 -7.73386 0 5.96662 -7.7265 0 5.95823 -7.71912 0 
5.9499 -7.71172 0 5.94166 -7.70428 0 5.93343 -7.69685 0 
5.92521 -7.68939 0 5.91709 -7.68193 0 5.90902 -7.67445 0 
5.90096 -7.66695 0 5.893 -7.65944 0 5.88504 -7.65191 0 
5.87714 -7.64436 0 5.86933 -7.63681 0 5.86153 -7.62923 0 
5.85383 -7.62162 0 5.84614 -7.61402 0 5.8385 -7.6064 0 
5.83091 -7.59877 0 5.82333 -7.59112 0 5.81584 -7.58346 0 
5.8084 -7.57579 0 5.80097 -7.5681 0 5.79364 -7.56041 0 
5.78632 -7.55269 0 5.77909 -7.54494 0 5.7719 -7.53721 0 
5.76473 -7.52946 0 5.75761 -7.5217 0 5.75054 -7.51392 0 
5.74348 -7.50613 0 5.73651 -7.49833 0 5.72959 -7.49052 0 
5.72268 -7.4827 0 5.71582 -7.47486 0 5.70909 -7.467 0 
5.70232 -7.45914 0 5.69561 -7.45128 0 5.68895 -7.4434 0 
5.68233 -7.43551 0 5.67573 -7.42761 0 5.66922 -7.4197 0 
5.66271 -7.41178 0 5.65629 -7.40386 0 5.64988 -7.39592 0 
5.64352 -7.38797 0 5.63725 -7.37999 0 5.63099 -7.37202 0 
5.62474 -7.36404 0 5.61857 -7.35606 0 5.61241 -7.34806 0 
5.6063 -7.34006 0 5.60028 -7.33205 0 5.59426 -7.32403 0 
5.58826 -7.316 0 5.58233 -7.30796 0 5.57651 -7.2999 0 
5.57064 -7.29184 0 5.56483 -7.28378 0 5.55905 -7.27571 0 
5.55333 -7.26764 0 5.54766 -7.25955 0 5.54203 -7.25147 0 
5.53641 -7.24337 0 5.53087 -7.23527 0 5.52534 -7.22716 0 
5.51986 -7.21904 0 5.51447 -7.2109 0 5.50908 -7.20277 0 
5.5037 -7.19463 0 5.49836 -7.18649 0 5.49311 -7.17834 0 
5.48786 -7.17019 0 5.48267 -7.16203 0 5.47747 -7.15386 0 
5.47236 -7.1457 0 5.46726 -7.13752 0 5.46225 -7.12932 0 
5.45724 -7.12113 0 5.45227 -7.11294 0 5.44735 -7.10475 0 
5.44244 -7.09655 0 5.43761 -7.08835 0 5.43278 -7.08014 0 
5.428 -7.07193 0 5.42326 -7.06371 0 5.41853 -7.05549 0 
5.41385 -7.04726 0 5.40928 -7.03901 0 5.40465 -7.03078 0 
5.4001 -7.02254 0 5.39559 -7.01431 0 5.39108 -7.00606 0 
5.38662 -6.99781 0 5.3822 -6.98956 0 5.37783 -6.98131 0 
5.3735 -6.97306 0 5.36917 -6.9648 0 5.36493 -6.95652 0 
5.36069 -6.94826 0 5.35649 -6.93999 0 5.35234 -6.93173 0 
5.34819 -6.92346 0 5.34409 -6.91519 0 5.34002 -6.90691 0 
5.336 -6.89864 0 5.33199 -6.89036 0 5.32805 -6.88209 0 
5.32412 -6.87381 0 5.32028 -6.8655 0 5.31639 -6.85722 0 
5.31258 -6.84894 0 5.30878 -6.84065 0 5.30502 -6.83236 0 
5.3013 -6.82408 0 5.29759 -6.81579 0 5.29395 -6.8075 0 
5.29032 -6.79921 0 5.2867 -6.79092 0 5.28319 -6.78261 0 
5.27964 -6.77432 0 5.27618 -6.76603 0 5.27271 -6.75774 0 
5.26925 -6.74944 0 5.26588 -6.74116 0 5.26249 -6.73287 0 
5.25916 -6.72458 0 5.25586 -6.71629 0 5.25257 -6.70799 0 
5.24936 -6.69968 0 5.24614 -6.69139 0 5.24297 -6.6831 0 
5.23983 -6.67482 0 5.23671 -6.66653 0 5.23361 -6.65825 0 
5.23056 -6.64997 0 5.22752 -6.64168 0 5.22454 -6.6334 0 
5.22157 -6.62512 0 5.21861 -6.61684 0 5.21576 -6.60854 0 
5.21287 -6.60026 0 5.21002 -6.59199 0 5.20722 -6.58372 0 
5.20445 -6.57545 0 5.20168 -6.56718 0 5.19895 -6.55891 0 
5.19626 -6.55065 0 5.19356 -6.54238 0 5.19092 -6.53412 0 
5.18834 -6.52584 0 5.18578 -6.51759 0 5.1832 -6.50933 0 
5.18067 -6.50108 0 5.17817 -6.49283 0 5.17572 -6.48459 0 
5.17326 -6.47634 0 5.17085 -6.4681 0 5.16847 -6.45987 0 
5.16609 -6.45163 0 5.16379 -6.4434 0 5.16153 -6.43515 0 
5.15922 -6.42692 0 5.157 -6.41871 0 5.15477 -6.41049 0 
5.15258 -6.40227 0 5.15039 -6.39406 0 5.14828 -6.38586 0 
5.14616 -6.37765 0 5.14405 -6.36944 0 5.14201 -6.36125 0 
5.14002 -6.35304 0 5.13801 -6.34485 0 5.13601 -6.33666 0 
5.13408 -6.32848 0 5.13216 -6.32031 0 5.13023 -6.31213 0 
5.12838 -6.30396 0 5.12652 -6.2958 0 5.1247 -6.28764 0 
5.12288 -6.27948 0 5.12118 -6.27131 0 5.11944 -6.26317 0 
5.11769 -6.25502 0 5.11601 -6.24689 0 5.11434 -6.23875 0 
5.11267 -6.23062 0 5.11106 -6.2225 0 5.10946 -6.21438 0 
5.10789 -6.20627 0 5.10636 -6.19816 0 5.10484 -6.19006 0 
5.10338 -6.18194 0 5.10188 -6.17384 0 5.10046 -6.16576 0 
5.09903 -6.15767 0 5.0976 -6.14959 0 5.09625 -6.14152 0 
5.09489 -6.13346 0 5.09357 -6.1254 0 5.09225 -6.11734 0 
5.09096 -6.10928 0 5.08975 -6.10122 0 5.08854 -6.09319 0 
5.08732 -6.08515 0 5.08613 -6.07713 0 5.08499 -6.06911 0 
5.08383 -6.06109 0 5.08272 -6.05308 0 5.0816 -6.04507 0 
5.08055 -6.03708 0 5.07951 -6.02909 0 5.07846 -6.0211 0 
5.07752 -6.01311 0 5.07654 -6.00513 0 5.07559 -5.99717 0 
5.07464 -5.98921 0 5.07372 -5.98125 0 5.07285 -5.97331 0 
5.07196 -5.96536 0 5.07111 -5.95743 0 5.0703 -5.94951 0 
5.06948 -5.94158 0 5.06877 -5.93365 0 5.06799 -5.92574 0 
5.06727 -5.91785 0 5.06655 -5.90995 0 5.06587 -5.90207 0 
5.06518 -5.89418 0 5.06453 -5.88631 0 5.06391 -5.87844 0 
5.06328 -5.87058 0 5.06269 -5.86273 0 5.06218 -5.85486 0 
5.06165 -5.84703 0 5.06113 -5.8392 0 5.06064 -5.83138 0 
5.06014 -5.82356 0 5.05968 -5.81575 0 5.05925 -5.80795 0 
5.05881 -5.80015 0 5.05841 -5.79237 0 5.05805 -5.78459 0 
5.05768 -5.77681 0 5.05738 -5.76903 0 5.05707 -5.76128 0 
5.05676 -5.75352 0 5.05649 -5.74578 0 5.05625 -5.73805 0 
5.05601 -5.73032 0 5.05579 -5.7226 0 5.05557 -5.71489 0 
5.05539 -5.70718 0 5.05523 -5.69949 0 5.05515 -5.69178 0 
5.05503 -5.6841 0 5.05494 -5.67643 0 5.05484 -5.66877 0 
5.05478 -5.66111 0 5.05475 -5.65346 0 5.05472 -5.64582 0 
5.05471 -5.63819 0 5.05474 -5.63057 0 5.05477 -5.62295 0 
5.05482 -5.61534 0 5.05495 -5.60773 0 5.05504 -5.60013 0 
5.05516 -5.59255 0 5.05527 -5.58497 0 5.05541 -5.57741 0 
5.05559 -5.56985 0 5.0558 -5.56231 0 5.056 -5.55477 0 
5.0562 -5.54722 0 5.05647 -5.53971 0 5.05677 -5.53217 0 
5.05703 -5.52466 0 5.05731 -5.51716 0 5.05764 -5.50967 0 
5.05799 -5.50219 0 5.05834 -5.49472 0 5.05867 -5.48724 0 
5.05909 -5.4798 0 5.05949 -5.47235 0 5.05989 -5.4649 0 
5.0604 -5.45746 0 5.06083 -5.45003 0 5.06132 -5.44262 0 
5.06181 -5.43522 0 5.06233 -5.42783 0 5.06285 -5.42043 0 
5.06339 -5.41306 0 5.06397 -5.40569 0 5.06454 -5.39833 0 
5.06514 -5.39098 0 5.06574 -5.38364 0 5.06641 -5.37628 0 
5.06707 -5.36896 0 5.06772 -5.36164 0 5.06841 -5.35434 0 
5.06913 -5.34704 0 5.06983 -5.33975 0 5.07058 -5.33248 0 
5.07131 -5.3252 0 5.07207 -5.31794 0 5.07287 -5.31069 0 
5.0737 -5.30343 0 5.07452 -5.2962 0 5.07538 -5.28898 0 
5.07623 -5.28176 0 5.07706 -5.27455 0 5.07798 -5.26736 0 
5.07888 -5.26017 0 5.07978 -5.25298 0 5.08071 -5.24581 0 
5.08167 -5.23865 0 5.08266 -5.2315 0 5.08365 -5.22436 0 
5.08463 -5.21722 0 5.08564 -5.2101 0 5.08668 -5.20298 0 
5.08775 -5.19588 0 5.08881 -5.18879 0 5.08987 -5.18169 0 
5.09096 -5.17461 0 5.09207 -5.16755 0 5.09322 -5.16049 0 
5.09437 -5.15345 0 5.0955 -5.1464 0 5.0967 -5.13938 0 
5.0979 -5.13236 0 5.09909 -5.12534 0 5.10031 -5.11834 0 
5.10157 -5.11135 0 5.10281 -5.10436 0 5.10408 -5.09739 0 
5.10535 -5.09042 0 5.10665 -5.08347 0 5.10797 -5.07653 0 
5.10929 -5.06959 0 5.11065 -5.06267 0 5.11203 -5.05576 0 
5.1134 -5.04885 0 5.11477 -5.04195 0 5.11616 -5.03506 0 
5.11759 -5.02818 0 5.11905 -5.02132 0 5.1205 -5.01447 0 
5.12194 -5.00761 0 5.12345 -5.00078 0 5.12492 -4.99395 0 
5.12645 -4.98713 0 5.12797 -4.98033 0 5.12949 -4.97352 0 
5.13104 -4.96673 0 5.13262 -4.95995 0 5.13419 -4.95318 0 
5.1358 -4.94642 0 5.13743 -4.93967 0 5.13905 -4.93293 0 
5.1407 -4.9262 0 5.14235 -4.91948 0 5.14402 -4.91277 0 
5.1457 -4.90606 0 5.14739 -4.89937 0 5.14912 -4.89269 0 
5.15085 -4.88602 0 5.15259 -4.87936 0 5.15433 -4.8727 0 
5.15611 -4.86606 0 5.15791 -4.85943 0 5.15971 -4.85281 0 
5.16149 -4.84619 0 5.16335 -4.83959 0 5.16519 -4.833 0 
5.16703 -4.82641 0 5.1689 -4.81984 0 5.1708 -4.81328 0 
5.17269 -4.80672 0 5.17461 -4.80018 0 5.17652 -4.79364 0 
5.17847 -4.78712 0 5.1804 -4.7806 0 5.18237 -4.77409 0 
5.18436 -4.7676 0 5.18635 -4.76112 0 5.18836 -4.75464 0 
5.19037 -4.74817 0 5.1924 -4.74172 0 5.19447 -4.73528 0 
5.19654 -4.72884 0 5.19863 -4.72242 0 5.2007 -4.716 0 
5.20281 -4.7096 0 5.20492 -4.7032 0 5.20705 -4.69681 0 
5.20921 -4.69044 0 5.21136 -4.68408 0 5.21351 -4.67771 0 
5.21572 -4.67138 0 5.21788 -4.66503 0 5.22012 -4.65871 0 
5.22235 -4.6524 0 5.22457 -4.64609 0 5.22681 -4.63979 0 
5.22909 -4.6335 0 5.23136 -4.62722 0 5.23366 -4.62096 0 
5.23599 -4.61471 0 5.23827 -4.60845 0 5.24062 -4.60222 0 
5.24296 -4.596 0 5.24533 -4.58978 0 5.24769 -4.58357 0 
5.25008 -4.57738 0 5.25246 -4.57119 0 5.25488 -4.56501 0 
5.25729 -4.55884 0 5.25972 -4.55268 0 5.26219 -4.54654 0 
5.26464 -4.5404 0 5.26712 -4.53428 0 5.2696 -4.52816 0 
5.27211 -4.52205 0 5.2746 -4.51595 0 5.27713 -4.50986 0 
5.27969 -4.50379 0 5.28224 -4.49772 0 5.28481 -4.49167 0 
5.28738 -4.48562 0 5.28998 -4.47958 0 5.29258 -4.47355 0 
5.2952 -4.46753 0 5.29781 -4.46152 0 5.30045 -4.45552 0 
5.30312 -4.44954 0 5.30578 -4.44356 0 5.30847 -4.43759 0 
5.31116 -4.43163 0 5.31387 -4.42569 0 5.31658 -4.41974 0 
5.31931 -4.41381 0 5.32203 -4.40789 0 5.32479 -4.40198 0 
5.32758 -4.39609 0 5.33035 -4.39019 0 5.33316 -4.38432 0 
5.33595 -4.37845 0 5.33878 -4.37259 0 5.34159 -4.36673 0 
5.34444 -4.36089 0 5.34728 -4.35506 0 5.35015 -4.34924 0 
5.35305 -4.34343 0 5.35594 -4.33763 0 5.35885 -4.33184 0 
5.36177 -4.32606 0 5.36471 -4.32029 0 5.36764 -4.31453 0 
5.3706 -4.30877 0 5.37355 -4.30303 0 5.37653 -4.2973 0 
5.37954 -4.29158 0 5.38255 -4.28587 0 5.38554 -4.28016 0 
5.38857 -4.27446 0 5.39162 -4.26878 0 5.39466 -4.2631 0 
5.39774 -4.25744 0 5.40081 -4.25178 0 5.4039 -4.24614 0 
5.40702 -4.24051 0 5.41014 -4.23489 0 5.41325 -4.22927 0 
5.41639 -4.22366 0 5.41955 -4.21807 0 5.42271 -4.21248 0 
5.4259 -4.20691 0 5.42908 -4.20134 0 5.43229 -4.19579 0 
5.43549 -4.19023 0 5.43872 -4.1847 0 5.44195 -4.17916 0 
5.4452 -4.17365 0 5.44847 -4.16814 0 5.45175 -4.16264 0 
5.45505 -4.15716 0 5.45835 -4.15168 0 5.46167 -4.14621 0 
5.46499 -4.14075 0 5.46833 -4.1353 0 5.47166 -4.12985 0 
5.47503 -4.12442 0 5.47839 -4.119 0 5.48177 -4.11358 0 
5.48516 -4.10818 0 5.48856 -4.10278 0 5.492 -4.0974 0 
5.49543 -4.09203 0 5.49889 -4.08667 0 5.50234 -4.08131 0 
5.50581 -4.07597 0 5.50929 -4.07063 0 5.51279 -4.06531 0 
5.51628 -4.05999 0 5.51981 -4.05468 0 5.52332 -4.04938 0 
5.52686 -4.04409 0 5.53044 -4.03882 0 5.534 -4.03355 0 
5.53756 -4.02828 0 5.54114 -4.02303 0 5.54476 -4.01779 0 
5.54837 -4.01256 0 5.55201 -4.00734 0 5.55564 -4.00212 0 
5.5593 -3.99692 0 5.56295 -3.99172 0 5.56663 -3.98654 0 
5.5703 -3.98136 0 5.57401 -3.9762 0 5.57774 -3.97105 0 