# vtk DataFile Version 3.0
vtk output
ASCII
DATASET POLYDATA
POINTS 5000 float
11.1081 -36.681 0 14.5379 -36.1977 0 15.9764 -35.984 0 
17.0847 -35.8166 0 18.0208 -35.6741 0 18.8463 -35.5478 0 
19.5924 -35.4335 0 20.2783 -35.3286 0 20.9159 -35.2313 0 
21.514 -35.1403 0 22.0786 -35.0549 0 22.6146 -34.9742 0 
23.1257 -34.8977 0 23.6146 -34.825 0 24.0839 -34.7557 0 
24.5355 -34.6896 0 24.971 -34.6262 0 25.3919 -34.5655 0 
25.7994 -34.5073 0 26.1944 -34.4513 0 26.578 -34.3975 0 
26.9508 -34.3456 0 27.3138 -34.2956 0 27.6673 -34.2473 0 
28.0121 -34.2007 0 28.3486 -34.1556 0 28.6772 -34.1119 0 
28.9985 -34.0697 0 29.3128 -34.0289 0 29.6205 -33.9892 0 
29.9218 -33.9508 0 30.2169 -33.9136 0 30.5065 -33.8774 0 
30.7904 -33.8423 0 31.0691 -33.8081 0 31.3427 -33.7749 0 
31.6114 -33.7427 0 31.8755 -33.7112 0 32.1351 -33.6806 0 
32.3903 -33.6509 0 32.6415 -33.6219 0 32.8885 -33.5936 0 
33.1317 -33.5661 0 33.3711 -33.5392 0 33.607 -33.513 0 
33.8394 -33.4874 0 34.0683 -33.4624 0 34.2939 -33.4379 0 
34.5164 -33.414 0 34.7357 -33.3907 0 34.9522 -33.3679 0 
35.1657 -33.3456 0 35.3764 -33.3238 0 35.5843 -33.3025 0 
35.7895 -33.2815 0 35.9921 -33.261 0 36.1923 -33.241 0 
36.39 -33.2213 0 36.5853 -33.2019 0 36.7782 -33.1829 0 
36.9689 -33.1643 0 37.1574 -33.1461 0 37.3438 -33.1282 0 
37.5279 -33.1105 0 37.7101 -33.0932 0 37.8903 -33.0762 0 
38.0685 -33.0595 0 38.2447 -33.043 0 38.4191 -33.0267 0 
38.5917 -33.0108 0 38.7625 -32.995 0 38.9315 -32.9796 0 
39.0989 -32.9643 0 39.2645 -32.9492 0 39.4286 -32.9344 0 
39.591 -32.9198 0 39.7519 -32.9053 0 39.9112 -32.891 0 
40.069 -32.8769 0 40.2254 -32.8629 0 40.3803 -32.8491 0 
40.5338 -32.8355 0 40.686 -32.822 0 40.8367 -32.8087 0 
40.9861 -32.7955 0 41.1343 -32.7824 0 41.2811 -32.7695 0 
41.4267 -32.7566 0 41.571 -32.7439 0 41.7142 -32.7312 0 
41.8562 -32.7187 0 41.9969 -32.7063 0 42.1366 -32.694 0 
42.2751 -32.6818 0 42.4125 -32.6696 0 42.5489 -32.6575 0 
42.6841 -32.6455 0 42.8183 -32.6336 0 42.9515 -32.6218 0 
43.0838 -32.6099 0 43.215 -32.5981 0 43.3451 -32.5865 0 
43.4744 -32.5748 0 43.6027 -32.5633 0 43.7301 -32.5517 0 
43.8566 -32.5402 0 43.9822 -32.5288 0 44.1068 -32.5173 0 
44.2306 -32.506 0 44.3536 -32.4946 0 44.4758 -32.4832 0 
44.597 -32.4719 0 44.7175 -32.4606 0 44.8372 -32.4493 0 
44.9561 -32.438 0 45.0742 -32.4268 0 45.1916 -32.4156 0 
45.3082 -32.4044 0 45.424 -32.3931 0 45.5391 -32.3819 0 
45.6536 -32.3706 0 45.7672 -32.3594 0 45.8802 -32.3482 0 
45.9925 -32.337 0 46.1041 -32.3257 0 46.2151 -32.3145 0 
46.3254 -32.3033 0 46.435 -32.292 0 46.544 -32.2807 0 
46.6524 -32.2694 0 46.7601 -32.2581 0 46.8673 -32.2467 0 
46.9738 -32.2354 0 47.0797 -32.224 0 47.1851 -32.2126 0 
47.2899 -32.2012 0 47.394 -32.1897 0 47.4977 -32.1783 0 
47.6007 -32.1668 0 47.7032 -32.1553 0 47.8052 -32.1437 0 
47.9066 -32.132 0 48.0076 -32.1204 0 48.108 -32.1087 0 
48.2078 -32.097 0 48.3072 -32.0853 0 48.4061 -32.0735 0 
48.5044 -32.0617 0 48.6023 -32.0499 0 48.6997 -32.038 0 
48.7966 -32.026 0 48.8931 -32.0139 0 48.989 -32.0019 0 
49.0846 -31.9898 0 49.1796 -31.9777 0 49.2743 -31.9656 0 
49.3684 -31.9534 0 49.4622 -31.9411 0 49.5555 -31.9288 0 
49.6484 -31.9164 0 49.7409 -31.904 0 49.8329 -31.8916 0 
49.9246 -31.879 0 50.0158 -31.8664 0 50.1066 -31.8538 0 
50.1971 -31.8411 0 50.2871 -31.8284 0 50.3768 -31.8156 0 
50.466 -31.8027 0 50.555 -31.7899 0 50.6435 -31.7769 0 
50.7317 -31.7639 0 50.8194 -31.7507 0 50.9068 -31.7376 0 
50.9939 -31.7244 0 51.0807 -31.7112 0 51.1671 -31.6979 0 
51.2531 -31.6845 0 51.3387 -31.6711 0 51.424 -31.6576 0 
51.5091 -31.6441 0 51.5938 -31.6305 0 51.6781 -31.6168 0 
51.7621 -31.603 0 51.8459 -31.5892 0 51.9293 -31.5753 0 
52.0123 -31.5614 0 52.0951 -31.5474 0 52.1776 -31.5334 0 
52.2597 -31.5193 0 52.3416 -31.5051 0 52.4231 -31.4908 0 
52.5044 -31.4765 0 52.5854 -31.4621 0 52.6661 -31.4476 0 
52.7465 -31.4331 0 52.8266 -31.4186 0 52.9065 -31.4039 0 
52.986 -31.3892 0 53.0653 -31.3745 0 53.1443 -31.3596 0 
53.2231 -31.3447 0 53.3016 -31.3298 0 53.3799 -31.3147 0 
53.4579 -31.2995 0 53.5356 -31.2844 0 53.613 -31.2691 0 
53.6902 -31.2538 0 53.7671 -31.2384 0 53.8439 -31.223 0 
53.9203 -31.2075 0 53.9966 -31.1919 0 54.0725 -31.1763 0 
54.1483 -31.1606 0 54.2238 -31.1447 0 54.2991 -31.1288 0 
54.3741 -31.1129 0 54.4489 -31.0969 0 54.5235 -31.0809 0 
54.5978 -31.0648 0 54.672 -31.0486 0 54.7459 -31.0323 0 
54.8196 -31.016 0 54.8931 -30.9996 0 54.9664 -30.983 0 
55.0394 -30.9665 0 55.1122 -30.9499 0 55.1849 -30.9332 0 
55.2573 -30.9165 0 55.3295 -30.8997 0 55.4015 -30.8828 0 
55.4733 -30.8659 0 55.5449 -30.8489 0 55.6164 -30.8318 0 
55.6875 -30.8146 0 55.7586 -30.7973 0 55.8294 -30.78 0 
55.9001 -30.7627 0 55.9705 -30.7453 0 56.0407 -30.7278 0 
56.1107 -30.7102 0 56.1807 -30.6926 0 56.2504 -30.6749 0 
56.3198 -30.6571 0 56.3892 -30.6393 0 56.4583 -30.6213 0 
56.5273 -30.6033 0 56.5961 -30.5853 0 56.6648 -30.5672 0 
56.7332 -30.549 0 56.8015 -30.5308 0 56.8696 -30.5125 0 
56.9375 -30.4941 0 57.0053 -30.4757 0 57.0729 -30.4572 0 
57.1403 -30.4386 0 57.2076 -30.4199 0 57.2747 -30.4012 0 
57.3417 -30.3824 0 57.4085 -30.3636 0 57.475 -30.3447 0 
57.5415 -30.3257 0 57.6078 -30.3067 0 57.674 -30.2876 0 
57.74 -30.2684 0 57.8058 -30.2492 0 57.8715 -30.2298 0 
57.9371 -30.2104 0 58.0025 -30.191 0 58.0677 -30.1715 0 
58.1328 -30.1519 0 58.1977 -30.1323 0 58.2625 -30.1126 0 
58.3272 -30.0929 0 58.3918 -30.0731 0 58.4561 -30.0532 0 
58.5203 -30.0333 0 58.5844 -30.0131 0 58.6484 -29.9931 0 
58.7122 -29.9729 0 58.7759 -29.9527 0 58.8394 -29.9325 0 
58.9028 -29.9122 0 58.9661 -29.8918 0 59.0292 -29.8713 0 
59.0922 -29.8508 0 59.155 -29.8302 0 59.2178 -29.8095 0 
59.2804 -29.7888 0 59.3428 -29.768 0 59.4052 -29.7472 0 
59.4674 -29.7263 0 59.5295 -29.7054 0 59.5915 -29.6844 0 
59.6533 -29.6633 0 59.715 -29.6422 0 59.7766 -29.621 0 
59.838 -29.5997 0 59.8995 -29.5784 0 59.9606 -29.557 0 
60.0217 -29.5356 0 60.0827 -29.5141 0 60.1436 -29.4925 0 
60.2043 -29.4709 0 60.2649 -29.4493 0 60.3254 -29.4275 0 
60.3858 -29.4057 0 60.446 -29.3839 0 60.5063 -29.3619 0 
60.5663 -29.3399 0 60.6262 -29.3179 0 60.686 -29.2959 0 
60.7457 -29.2737 0 60.8053 -29.2515 0 60.8648 -29.2293 0 
60.9241 -29.207 0 60.9834 -29.1846 0 61.0425 -29.1622 0 
61.1016 -29.1396 0 61.1605 -29.1171 0 61.2194 -29.0945 0 
61.2781 -29.0719 0 61.3367 -29.0492 0 61.3951 -29.0264 0 
61.4536 -29.0036 0 61.5118 -28.9808 0 61.57 -28.9579 0 
61.6281 -28.9349 0 61.6861 -28.9118 0 61.744 -28.8887 0 
61.8018 -28.8656 0 61.8594 -28.8424 0 61.917 -28.8191 0 
61.9744 -28.7959 0 62.0318 -28.7725 0 62.0891 -28.7491 0 
62.1463 -28.7257 0 62.2033 -28.7022 0 62.2603 -28.6786 0 
62.3172 -28.6549 0 62.374 -28.6312 0 62.4307 -28.6075 0 
62.4872 -28.5838 0 62.5437 -28.56 0 62.6001 -28.5361 0 
62.6564 -28.5122 0 62.7126 -28.4882 0 62.7687 -28.4642 0 
62.8247 -28.4402 0 62.8807 -28.4159 0 62.9365 -28.3918 0 
62.9923 -28.3676 0 63.0479 -28.3433 0 63.1035 -28.319 0 
63.1589 -28.2946 0 63.2142 -28.2702 0 63.2695 -28.2458 0 
63.3247 -28.2213 0 63.3798 -28.1967 0 63.4348 -28.1721 0 
63.4898 -28.1474 0 63.5446 -28.1227 0 63.5993 -28.0979 0 
63.6539 -28.0732 0 63.7085 -28.0483 0 63.763 -28.0234 0 
63.8174 -27.9985 0 63.8717 -27.9735 0 63.9259 -27.9485 0 
63.9801 -27.9235 0 64.0341 -27.8982 0 64.0881 -27.8731 0 
64.142 -27.8479 0 64.1957 -27.8226 0 64.2494 -27.7974 0 
64.303 -27.772 0 64.3566 -27.7467 0 64.41 -27.7212 0 
64.4634 -27.6958 0 64.5167 -27.6703 0 64.5699 -27.6447 0 
64.623 -27.619 0 64.6761 -27.5934 0 64.729 -27.5677 0 
64.7819 -27.542 0 64.8347 -27.5162 0 64.8874 -27.4904 0 
64.94 -27.4646 0 64.9926 -27.4387 0 65.0451 -27.4128 0 
65.0974 -27.3868 0 65.1497 -27.3607 0 65.202 -27.3347 0 
65.2542 -27.3086 0 65.3062 -27.2824 0 65.3582 -27.2563 0 
65.4101 -27.2301 0 65.462 -27.2038 0 65.5137 -27.1775 0 
65.5654 -27.1512 0 65.617 -27.1249 0 65.6686 -27.0983 0 
65.72 -27.0719 0 65.7714 -27.0454 0 65.8227 -27.0189 0 
65.8738 -26.9923 0 65.925 -26.9658 0 65.976 -26.9391 0 
66.027 -26.9125 0 66.078 -26.8858 0 66.1288 -26.859 0 
66.1795 -26.8323 0 66.2302 -26.8053 0 66.2809 -26.7785 0 
66.3314 -26.7516 0 66.3818 -26.7247 0 66.4322 -26.6977 0 
66.4826 -26.6707 0 66.5328 -26.6437 0 66.583 -26.6167 0 
66.6331 -26.5896 0 66.683 -26.5624 0 66.733 -26.5352 0 
66.7829 -26.508 0 66.8327 -26.4807 0 66.8824 -26.4535 0 
66.9321 -26.4262 0 66.9816 -26.3988 0 67.0311 -26.3715 0 
67.0806 -26.3441 0 67.1299 -26.3167 0 67.1792 -26.2892 0 
67.2284 -26.2617 0 67.2776 -26.2341 0 67.3267 -26.2065 0 
67.3756 -26.1789 0 67.4246 -26.1513 0 67.4734 -26.1237 0 
67.5222 -26.096 0 67.5709 -26.0683 0 67.6196 -26.0405 0 
67.6681 -26.0128 0 67.7166 -25.9849 0 67.7651 -25.957 0 
67.8135 -25.9291 0 67.8617 -25.9013 0 67.9099 -25.8733 0 
67.9582 -25.8454 0 68.0062 -25.8174 0 68.0542 -25.7894 0 
68.1022 -25.7614 0 68.15 -25.7333 0 68.1978 -25.7052 0 
68.2456 -25.677 0 68.2933 -25.6488 0 68.3409 -25.6207 0 
68.3884 -25.5924 0 68.4358 -25.5642 0 68.4833 -25.536 0 
68.5305 -25.5077 0 68.5778 -25.4794 0 68.625 -25.451 0 
68.6721 -25.4227 0 68.7192 -25.3943 0 68.7662 -25.3658 0 
68.8131 -25.3373 0 68.86 -25.3089 0 68.9067 -25.2804 0 
68.9534 -25.2519 0 69.0001 -25.2233 0 69.0467 -25.1947 0 
69.0931 -25.1662 0 69.1396 -25.1376 0 69.186 -25.1089 0 
69.2323 -25.0801 0 69.2786 -25.0515 0 69.3247 -25.0228 0 
69.3708 -24.994 0 69.4168 -24.9653 0 69.4628 -24.9365 0 
69.5087 -24.9077 0 69.5545 -24.8789 0 69.6003 -24.85 0 
69.646 -24.8211 0 69.6917 -24.7923 0 69.7373 -24.7632 0 
69.7828 -24.7343 0 69.8282 -24.7053 0 69.8736 -24.6764 0 
69.9189 -24.6474 0 69.9642 -24.6183 0 70.0093 -24.5893 0 
70.0544 -24.5602 0 70.0994 -24.5312 0 70.1444 -24.5021 0 
70.1894 -24.4728 0 70.2342 -24.4437 0 70.2791 -24.4145 0 
70.3237 -24.3853 0 70.3684 -24.3561 0 70.413 -24.3269 0 
70.4575 -24.2977 0 70.502 -24.2684 0 70.5464 -24.2391 0 
70.5907 -24.2098 0 70.635 -24.1805 0 70.6792 -24.1511 0 
70.7233 -24.1217 0 70.7674 -24.0923 0 70.8114 -24.063 0 
70.8553 -24.0336 0 70.8992 -24.0041 0 70.943 -23.9747 0 
70.9867 -23.9452 0 71.0304 -23.9158 0 71.0741 -23.8863 0 
71.1176 -23.8566 0 71.1611 -23.8271 0 71.2045 -23.7976 0 
[...]
POINT_DATA 5000
VECTORS velocity double
16.5238 -11.4068 0 16.5028 -10.6699 0 16.5078 -10.3523 0 
16.5151 -10.1068 0 16.5227 -9.90002 0 16.53 -9.71884 0 
16.5365 -9.55652 0 16.5421 -9.40893 0 16.5468 -9.27339 0 
16.5504 -9.14802 0 16.5531 -9.03141 0 16.5547 -8.92246 0 
16.5553 -8.82034 0 16.5549 -8.72437 0 16.5535 -8.63395 0 
16.5511 -8.54861 0 16.5478 -8.46799 0 16.5436 -8.39165 0 
16.5384 -8.31932 0 16.5324 -8.25074 0 16.5255 -8.18565 0 
16.5178 -8.12385 0 16.5093 -8.06512 0 16.5001 -8.00932 0 
16.49 -7.95626 0 16.4793 -7.9058 0 16.4678 -7.85785 0 
16.4557 -7.81222 0 16.4429 -7.76882 0 16.4294 -7.72752 0 
16.4153 -7.68826 0 16.4007 -7.65094 0 16.3854 -7.61545 0 
16.3696 -7.58173 0 16.3533 -7.5497 0 16.3364 -7.51928 0 
16.319 -7.49041 0 16.3012 -7.46303 0 16.2829 -7.43706 0 
16.2641 -7.41246 0 16.2449 -7.38915 0 16.2252 -7.36712 0 
16.2052 -7.34629 0 16.1848 -7.32663 0 16.164 -7.30808 0 
16.1428 -7.2906 0 16.1213 -7.27416 0 16.0994 -7.25873 0 
16.0772 -7.24425 0 16.0548 -7.23069 0 16.032 -7.21802 0 
16.0089 -7.20621 0 15.9855 -7.19522 0 15.9619 -7.18503 0 
15.9381 -7.17561 0 15.914 -7.16693 0 15.8896 -7.15897 0 
15.8651 -7.15169 0 15.8403 -7.1451 0 15.8153 -7.13913 0 
15.7902 -7.13378 0 15.7648 -7.12903 0 15.7393 -7.12485 0 
15.7136 -7.12124 0 15.6877 -7.11816 0 15.6617 -7.1156 0 
15.6355 -7.11354 0 15.6092 -7.11197 0 15.5828 -7.11087 0 
15.5563 -7.11022 0 15.5296 -7.11 0 15.5028 -7.1102 0 
15.476 -7.11081 0 15.449 -7.11181 0 15.4219 -7.11319 0 
15.3948 -7.11494 0 15.3675 -7.11703 0 15.3402 -7.11947 0 
15.3128 -7.12224 0 15.2854 -7.12534 0 15.2579 -7.12873 0 
15.2304 -7.13242 0 15.2027 -7.1364 0 15.1751 -7.14065 0 
15.1474 -7.14517 0 15.1197 -7.14994 0 15.092 -7.15497 0 
15.0642 -7.16023 0 15.0364 -7.16572 0 15.0086 -7.17144 0 
14.9807 -7.17737 0 14.9529 -7.1835 0 14.925 -7.18984 0 
14.8972 -7.19636 0 14.8693 -7.20307 0 14.8415 -7.20996 0 
14.8136 -7.21701 0 14.7858 -7.22423 0 14.758 -7.23161 0 
14.7302 -7.23915 0 14.7024 -7.24683 0 14.6746 -7.25465 0 
14.6468 -7.2626 0 14.6191 -7.27068 0 14.5914 -7.27889 0 
14.5637 -7.28721 0 14.5361 -7.29566 0 14.5085 -7.3042 0 
14.481 -7.31286 0 14.4534 -7.32161 0 14.426 -7.33046 0 
14.3986 -7.3394 0 14.3712 -7.34843 0 14.3439 -7.35754 0 
14.3166 -7.36673 0 14.2893 -7.37599 0 14.2621 -7.38533 0 
14.235 -7.39474 0 14.2079 -7.4042 0 14.1809 -7.41373 0 
14.154 -7.42332 0 14.1271 -7.43296 0 14.1003 -7.44265 0 
14.0736 -7.45239 0 14.0469 -7.46217 0 14.0203 -7.472 0 
13.9937 -7.48187 0 13.9672 -7.49177 0 13.9408 -7.5017 0 
13.9145 -7.51167 0 13.8882 -7.52167 0 13.8621 -7.53169 0 
13.8359 -7.54174 0 13.8099 -7.5518 0 13.784 -7.5619 0 
13.7581 -7.572 0 13.7323 -7.58211 0 13.7066 -7.59224 0 
13.681 -7.60238 0 13.6554 -7.61253 0 13.63 -7.62269 0 
13.6046 -7.63284 0 13.5793 -7.64301 0 13.5541 -7.65317 0 
13.529 -7.66333 0 13.504 -7.6735 0 13.479 -7.68365 0 
13.4542 -7.6938 0 13.4294 -7.70395 0 13.4048 -7.71408 0 
13.3802 -7.7242 0 13.3557 -7.73431 0 13.3314 -7.7444 0 
13.307 -7.75449 0 13.2829 -7.76455 0 13.2587 -7.77459 0 
13.2347 -7.78462 0 13.2108 -7.79463 0 13.187 -7.80462 0 
13.1633 -7.81458 0 13.1396 -7.82453 0 13.1161 -7.83444 0 
13.0927 -7.84433 0 13.0694 -7.85419 0 13.0461 -7.86402 0 
13.023 -7.87383 0 12.9999 -7.8836 0 12.977 -7.89335 0 
12.9541 -7.90305 0 12.9314 -7.91274 0 12.9088 -7.92238 0 
12.8862 -7.93199 0 12.8638 -7.94155 0 12.8415 -7.95109 0 
12.8192 -7.96059 0 12.7971 -7.97005 0 12.775 -7.97948 0 
12.7531 -7.98886 0 12.7313 -7.99819 0 12.7095 -8.00749 0 
12.6879 -8.01675 0 12.6664 -8.02596 0 12.645 -8.03513 0 
12.6237 -8.04426 0 12.6024 -8.05334 0 12.5813 -8.06238 0 
12.5603 -8.07136 0 12.5394 -8.08031 0 12.5186 -8.08921 0 
12.4979 -8.09806 0 12.4773 -8.10686 0 12.4568 -8.11561 0 
12.4364 -8.12431 0 12.4162 -8.13297 0 12.396 -8.14157 0 
12.3759 -8.15012 0 12.3559 -8.15862 0 12.336 -8.16707 0 
12.3163 -8.17547 0 12.2966 -8.18382 0 12.2771 -8.19211 0 
12.2576 -8.20035 0 12.2382 -8.20853 0 12.219 -8.21667 0 
12.1999 -8.22474 0 12.1808 -8.23276 0 12.1619 -8.24072 0 
12.143 -8.24864 0 12.1243 -8.25649 0 12.1057 -8.26429 0 
12.0872 -8.27203 0 12.0687 -8.27972 0 12.0504 -8.28735 0 
12.0322 -8.29492 0 12.0142 -8.30242 0 11.9961 -8.30988 0 
11.9782 -8.31728 0 11.9605 -8.32461 0 11.9428 -8.3319 0 
11.9252 -8.33912 0 11.9077 -8.34628 0 11.8903 -8.35338 0 
11.873 -8.36043 0 11.8558 -8.36741 0 11.8388 -8.37433 0 
11.8218 -8.38119 0 11.8049 -8.38799 0 11.7882 -8.39474 0 
11.7715 -8.40141 0 11.7549 -8.40804 0 11.7385 -8.4146 0 
11.7221 -8.4211 0 11.7058 -8.42753 0 11.6897 -8.43391 0 
11.6736 -8.44022 0 11.6577 -8.44646 0 11.6419 -8.45265 0 
11.6261 -8.45878 0 11.6105 -8.46485 0 11.5949 -8.47084 0 
11.5795 -8.47678 0 11.5641 -8.48267 0 11.5489 -8.48848 0 
11.5337 -8.49423 0 11.5187 -8.49993 0 11.5038 -8.50554 0 
11.4889 -8.5111 0 11.4742 -8.5166 0 11.4595 -8.52205 0 
11.445 -8.52742 0 11.4305 -8.53273 0 11.4162 -8.53799 0 
11.4019 -8.54316 0 11.3878 -8.54829 0 11.3737 -8.55334 0 
11.3597 -8.55834 0 11.3459 -8.56327 0 11.3322 -8.56813 0 
11.3185 -8.57294 0 11.3049 -8.57768 0 11.2915 -8.58235 0 
11.2781 -8.58696 0 11.2648 -8.59152 0 11.2516 -8.59601 0 
11.2385 -8.60043 0 11.2256 -8.60479 0 11.2127 -8.60907 0 
11.1999 -8.61331 0 11.1872 -8.61748 0 11.1746 -8.62158 0 
11.1621 -8.62562 0 11.1497 -8.6296 0 11.1374 -8.63351 0 
11.1251 -8.63737 0 11.113 -8.64116 0 11.101 -8.64488 0 
11.0891 -8.64854 0 11.0772 -8.65213 0 11.0655 -8.65566 0 
11.0538 -8.65913 0 11.0423 -8.66254 0 11.0308 -8.66588 0 
11.0194 -8.66916 0 11.0081 -8.67238 0 10.9969 -8.67553 0 
10.9858 -8.67863 0 10.9748 -8.68166 0 10.964 -8.68461 0 
10.9531 -8.68751 0 10.9424 -8.69035 0 10.9317 -8.69313 0 
10.9212 -8.69585 0 10.9107 -8.6985 0 10.9003 -8.70109 0 
10.89 -8.70362 0 10.8799 -8.70608 0 10.8698 -8.70849 0 
10.8598 -8.71081 0 10.8499 -8.7131 0 10.84 -8.71532 0 
10.8303 -8.71747 0 10.8206 -8.71957 0 10.811 -8.7216 0 
10.8016 -8.72356 0 10.7922 -8.72547 0 10.7829 -8.72732 0 
10.7736 -8.72911 0 10.7645 -8.73083 0 10.7555 -8.73248 0 
10.7465 -8.73409 0 10.7377 -8.73563 0 10.7289 -8.73711 0 
10.7202 -8.73853 0 10.7115 -8.73989 0 10.703 -8.74119 0 
10.6946 -8.74243 0 10.6862 -8.74361 0 10.6779 -8.74473 0 
10.6698 -8.74577 0 10.6617 -8.74677 0 10.6536 -8.74771 0 
10.6457 -8.74859 0 10.6378 -8.74941 0 10.6301 -8.75017 0 
10.6224 -8.75087 0 10.6148 -8.75152 0 10.6072 -8.7521 0 
10.5998 -8.75263 0 10.5925 -8.75308 0 10.5852 -8.75349 0 
10.578 -8.75384 0 10.5708 -8.75413 0 10.5638 -8.75437 0 
10.5569 -8.75454 0 10.55 -8.75466 0 10.5432 -8.75472 0 
10.5364 -8.75473 0 10.5298 -8.75467 0 10.5232 -8.75456 0 
10.5168 -8.75437 0 10.5104 -8.75414 0 10.5041 -8.75386 0 
10.4978 -8.75352 0 10.4916 -8.75313 0 10.4855 -8.75268 0 
10.4795 -8.75217 0 10.4736 -8.75161 0 10.4677 -8.75099 0 
10.4619 -8.75032 0 10.4563 -8.74957 0 10.4506 -8.74878 0 
10.4451 -8.74794 0 10.4396 -8.74704 0 10.4342 -8.7461 0 
10.4288 -8.74509 0 10.4236 -8.74403 0 10.4184 -8.74292 0 
10.4133 -8.74175 0 10.4082 -8.74053 0 10.4033 -8.73925 0 
10.3984 -8.7379 0 10.3936 -8.73652 0 10.3889 -8.73509 0 
10.3842 -8.7336 0 10.3796 -8.73206 0 10.375 -8.73047 0 
10.3706 -8.72882 0 10.3662 -8.72712 0 10.3619 -8.72537 0 
10.3576 -8.72357 0 10.3535 -8.72169 0 10.3494 -8.71979 0 
10.3454 -8.71783 0 10.3414 -8.71582 0 10.3375 -8.71376 0 
10.3337 -8.71164 0 10.3299 -8.70948 0 10.3262 -8.70727 0 
10.3226 -8.70501 0 10.319 -8.7027 0 10.3155 -8.70034 0 
10.3122 -8.6979 0 10.3088 -8.69544 0 10.3055 -8.69293 0 
10.3023 -8.69037 0 10.2991 -8.68776 0 10.296 -8.6851 0 
10.293 -8.6824 0 10.2901 -8.67964 0 10.2871 -8.67684 0 
10.2843 -8.67399 0 10.2816 -8.67107 0 10.2789 -8.66812 0 
10.2763 -8.66513 0 10.2737 -8.66209 0 10.2712 -8.659 0 
10.2687 -8.65587 0 10.2664 -8.65268 0 10.264 -8.64946 0 
10.2618 -8.64618 0 10.2596 -8.64286 0 10.2575 -8.63948 0 
10.2554 -8.63606 0 10.2534 -8.63261 0 10.2514 -8.62911 0 
10.2496 -8.62556 0 10.2477 -8.62197 0 10.2459 -8.61833 0 
10.2442 -8.61465 0 10.2426 -8.61093 0 10.241 -8.60716 0 
10.2394 -8.60335 0 10.238 -8.59947 0 10.2366 -8.59557 0 
10.2352 -8.59163 0 10.2339 -8.58764 0 10.2327 -8.58362 0 
10.2315 -8.57955 0 10.2304 -8.57543 0 10.2293 -8.57128 0 
10.2282 -8.56709 0 10.2273 -8.56285 0 10.2264 -8.55855 0 
10.2256 -8.55422 0 10.2248 -8.54986 0 10.224 -8.54546 0 
10.2233 -8.54102 0 10.2227 -8.53653 0 10.2221 -8.53201 0 
10.2216 -8.52745 0 10.2211 -8.52284 0 10.2207 -8.5182 0 
10.2203 -8.51352 0 10.22 -8.50878 0 10.2198 -8.50402 0 
10.2196 -8.49922 0 10.2194 -8.49438 0 10.2193 -8.48951 0 
10.2192 -8.4846 0 10.2192 -8.47964 0 10.2193 -8.47465 0 
10.2194 -8.46963 0 10.2195 -8.46457 0 10.2198 -8.45944 0 
10.22 -8.45431 0 10.2203 -8.44913 0 10.2206 -8.44392 0 
10.221 -8.43868 0 10.2214 -8.4334 0 10.2219 -8.42808 0 
10.2224 -8.42273 0 10.223 -8.41734 0 10.2236 -8.41191 0 
10.2244 -8.40644 0 10.2251 -8.40094 0 10.2259 -8.39542 0 
10.2267 -8.38985 0 10.2275 -8.38426 0 10.2284 -8.37863 0 
10.2294 -8.37297 0 10.2304 -8.36727 0 10.2314 -8.36154 0 
10.2325 -8.35578 0 10.2336 -8.34999 0 10.2348 -8.34414 0 
10.236 -8.33828 0 10.2373 -8.33239 0 10.2386 -8.32647 0 
10.2399 -8.32051 0 10.2413 -8.31453 0 10.2427 -8.30851 0 
10.2442 -8.30246 0 10.2457 -8.29638 0 10.2473 -8.29027 0 
10.2489 -8.28411 0 10.2505 -8.27794 0 10.2522 -8.27174 0 
10.2539 -8.26551 0 10.2557 -8.25925 0 10.2575 -8.25297 0 
10.2593 -8.24665 0 10.2612 -8.2403 0 10.2631 -8.23393 0 
10.265 -8.22753 0 10.267 -8.2211 0 10.2691 -8.21461 0 
10.2712 -8.20813 0 10.2733 -8.20161 0 10.2754 -8.19507 0 
10.2776 -8.1885 0 10.2798 -8.1819 0 10.2821 -8.17528 0 
10.2843 -8.16863 0 10.2867 -8.16196 0 10.289 -8.15526 0 
10.2915 -8.1485 0 10.2939 -8.14175 0 10.2964 -8.13497 0 
10.2989 -8.12817 0 10.3014 -8.12134 0 10.304 -8.11449 0 
10.3066 -8.10761 0 10.3092 -8.1007 0 10.3119 -8.09378 0 
10.3146 -8.08683 0 10.3173 -8.07985 0 10.3201 -8.07283 0 
10.3229 -8.0658 0 10.3258 -8.05876 0 10.3286 -8.05169 0 
10.3315 -8.0446 0 10.3344 -8.03749 0 10.3374 -8.03035 0 
10.3404 -8.02319 0 10.3434 -8.01601 0 10.3465 -8.00881 0 
10.3496 -8.00156 0 10.3527 -7.99432 0 10.3559 -7.98705 0 
10.359 -7.97976 0 10.3622 -7.97245 0 10.3655 -7.96512 0 
10.3687 -7.95777 0 10.372 -7.9504 0 10.3753 -7.94301 0 
10.3787 -7.93561 0 10.3821 -7.92815 0 10.3855 -7.9207 0 
10.3889 -7.91323 0 10.3924 -7.90575 0 10.3958 -7.89824 0 
10.3993 -7.89072 0 10.4029 -7.88318 0 10.4064 -7.87562 0 
10.41 -7.86803 0 10.4136 -7.86044 0 10.4173 -7.85282 0 
10.421 -7.84517 0 10.4247 -7.83752 0 10.4284 -7.82985 0 
10.4321 -7.82217 0 10.4359 -7.81446 0 10.4397 -7.80675 0 
10.4435 -7.79901 0 10.4473 -7.79126 0 10.4512 -7.7835 0 
10.455 -7.77572 0 10.459 -7.76789 0 10.4629 -7.76009 0 
10.4669 -7.75226 0 10.4709 -7.74441 0 10.4748 -7.73656 0 
10.4788 -7.72868 0 10.4829 -7.7208 0 10.487 -7.7129 0 
10.491 -7.70498 0 10.4951 -7.69705 0 10.4993 -7.68908 0 
10.5035 -7.68113 0 10.5076 -7.67315 0 10.5118 -7.66517 0 
10.516 -7.65718 0 10.5202 -7.64916 0 10.5245 -7.64114 0 
10.5287 -7.6331 0 10.533 -7.62506 0 10.5373 -7.617 0 
10.5416 -7.60893 0 10.546 -7.60082 0 10.5504 -7.59272 0 
10.5547 -7.58462 0 10.5591 -7.5765 0 10.5636 -7.56837 0 
10.568 -7.56023 0 10.5724 -7.55208 0 10.5769 -7.54392 0 
10.5814 -7.53574 0 10.5859 -7.52756 0 10.5904 -7.51934 0 
10.595 -7.51114 0 10.5995 -7.50292 0 10.6041 -7.4947 0 
10.6086 -7.48647 0 10.6132 -7.47823 0 10.6179 -7.46998 0 
10.6225 -7.46171 0 10.6271 -7.45345 0 10.6318 -7.44517 0 
10.6365 -7.43688 0 10.6412 -7.42857 0 10.6459 -7.42026 0 
10.6506 -7.41195 0 10.6553 -7.40363 0 10.6601 -7.39531 0 
10.6648 -7.38697 0 10.6696 -7.37863 0 10.6744 -7.37028 0 
10.6792 -7.36192 0 10.684 -7.35356 0 10.6889 -7.34516 0 
10.6937 -7.33679 0 10.6986 -7.3284 0 10.7034 -7.32002 0 
10.7083 -7.31162 0 10.7132 -7.30322 0 10.7181 -7.29481 0 
10.723 -7.2864 0 10.7279 -7.27798 0 10.7329 -7.26955 0 
10.7378 -7.26112 0 10.7428 -7.25266 0 10.7478 -7.24422 0 
10.7528 -7.23577 0 10.7577 -7.22733 0 10.7627 -7.21887 0 
10.7677 -7.21041 0 10.7728 -7.20194 0 10.7778 -7.19348 0 
10.7828 -7.18501 0 10.7879 -7.17653 0 10.793 -7.16802 0 
10.798 -7.15954 0 10.8031 -7.15105 0 10.8082 -7.14256 0 
10.8133 -7.13407 0 10.8184 -7.12557 0 10.8235 -7.11707 0 
10.8287 -7.10857 0 10.8338 -7.10006 0 10.8389 -7.09156 0 
10.8441 -7.08305 0 10.8493 -7.07451 0 10.8544 -7.06599 0 
10.8596 -7.05748 0 10.8648 -7.04896 0 10.87 -7.04044 0 
10.8752 -7.03192 0 10.8804 -7.02339 0 10.8856 -7.01486 0 
10.8908 -7.00634 0 10.896 -6.9978 0 10.9013 -6.98925 0 
10.9065 -6.98072 0 10.9118 -6.9722 0 10.917 -6.96366 0 
10.9222 -6.95513 0 10.9275 -6.9466 0 10.9328 -6.93806 0 
10.938 -6.92953 0 10.9433 -6.921 0 10.9486 -6.91246 0 
10.9539 -6.9039 0 10.9592 -6.89537 0 10.9645 -6.88684 0 
10.9698 -6.87831 0 10.9751 -6.86978 0 10.9804 -6.86124 0 
10.9858 -6.85271 0 10.9911 -6.84418 0 10.9964 -6.83566 0 
11.0017 -6.82713 0 11.0071 -6.8186 0 11.0125 -6.81005 0 
11.0178 -6.80153 0 11.0231 -6.79301 0 11.0285 -6.78449 0 
11.0339 -6.77597 0 11.0392 -6.76746 0 11.0446 -6.75894 0 
11.0499 -6.75043 0 11.0553 -6.74192 0 11.0607 -6.73341 0 
11.0661 -6.72488 0 11.0715 -6.71638 0 11.0769 -6.70788 0 
11.0822 -6.69938 0 11.0876 -6.69089 0 11.093 -6.6824 0 
11.0984 -6.67391 0 11.1038 -6.66542 0 11.1092 -6.65694 0 
11.1146 -6.64846 0 11.12 -6.63999 0 11.1254 -6.63149 0 
11.1308 -6.62302 0 11.1362 -6.61456 0 11.1416 -6.60609 0 
11.1471 -6.59764 0 11.1525 -6.58918 0 11.1579 -6.58074 0 
11.1633 -6.57229 0 11.1687 -6.56384 0 11.1741 -6.55541 0 
11.1796 -6.54695 0 11.185 -6.53853 0 11.1904 -6.5301 0 
11.1958 -6.52169 0 11.2013 -6.51327 0 11.2067 -6.50486 0 
11.2121 -6.49646 0 11.2175 -6.48806 0 11.2229 -6.47967 0 
11.2284 -6.47127 0 11.2339 -6.46287 0 11.2393 -6.45449 0 
11.2447 -6.44612 0 11.2501 -6.43775 0 11.2555 -6.42939 0 
11.261 -6.42103 0 11.2664 -6.41268 0 11.2718 -6.40434 0 
11.2772 -6.396 0 11.2827 -6.38767 0 11.2881 -6.37934 0 
11.2936 -6.371 0 11.299 -6.36268 0 11.3044 -6.35438 0 
11.3098 -6.34607 0 11.3152 -6.33778 0 11.3206 -6.32949 0 
11.3261 -6.32121 0 11.3315 -6.31293 0 11.3369 -6.30466 0 
11.3423 -6.2964 0 11.3478 -6.28812 0 11.3532 -6.27988 0 
11.3586 -6.27163 0 11.364 -6.2634 0 11.3694 -6.25517 0 
11.3748 -6.24695 0 11.3802 -6.23874 0 11.3856 -6.23053 0 
11.391 -6.22234 0 11.3964 -6.21415 0 11.4018 -6.20596 0 
11.4073 -6.19776 0 11.4127 -6.18959 0 11.4181 -6.18144 0 
11.4235 -6.17328 0 11.4289 -6.16513 0 11.4343 -6.157 0 
11.4396 -6.14887 0 11.445 -6.14075 0 11.4504 -6.13264 0 
11.4558 -6.12453 0 11.4612 -6.11642 0 11.4666 -6.10832 0 
11.472 -6.10025 0 11.4773 -6.09218 0 11.4827 -6.08411 0 
11.4881 -6.07606 0 11.4934 -6.06801 0 11.4988 -6.05997 0 
11.5041 -6.05194 0 11.5095 -6.04392 0 11.5149 -6.03589 0 
11.5203 -6.02789 0 11.5256 -6.01989 0 11.531 -6.01191 0 
11.5363 -6.00393 0 11.5416 -5.99596 0 11.547 -5.98801 0 
11.5523 -5.98005 0 11.5576 -5.97212 0 11.563 -5.96419 0 
11.5683 -5.95626 0 11.5737 -5.94833 0 11.579 -5.94043 0 
11.5843 -5.93253 0 11.5896 -5.92465 0 11.5949 -5.91678 0 
11.6002 -5.90891 0 11.6056 -5.90105 0 11.6108 -5.8932 0 
11.6161 -5.88537 0 11.6214 -5.87754 0 11.6268 -5.8697 0 
11.6321 -5.8619 0 11.6374 -5.8541 0 11.6426 -5.84631 0 
11.6479 -5.83853 0 11.6532 -5.83077 0 11.6584 -5.82301 0 
11.6637 -5.81526 0 11.669 -5.80752 0 11.6742 -5.79979 0 
11.6795 -5.79208 0 11.6848 -5.78435 0 11.6901 -5.77665 0 
11.6953 -5.76897 0 11.7005 -5.76129 0 11.7058 -5.75362 0 
11.711 -5.74597 0 11.7163 -5.73833 0 11.7215 -5.73069 0 
11.7267 -5.72306 0 11.7319 -5.71545 0 11.7372 -5.70783 0 
11.7424 -5.70023 0 11.7476 -5.69265 0 11.7528 -5.68507 0 
11.758 -5.67752 0 11.7632 -5.66997 0 11.7684 -5.66242 0 
11.7736 -5.6549 0 11.7788 -5.64738 0 11.7839 -5.63987 0 
11.7892 -5.63236 0 11.7943 -5.62486 0 11.7995 -5.61739 0 
11.8047 -5.60993 0 11.8099 -5.60248 0 11.815 -5.59503 0 
11.8202 -5.5876 0 11.8253 -5.58019 0 11.8305 -5.57277 0 
11.8356 -5.56538 0 11.8407 -5.55799 0 11.8459 -5.55059 0 
11.851 -5.54323 0 11.8562 -5.53587 0 11.8613 -5.52853 0 
11.8664 -5.52121 0 11.8715 -5.51388 0 11.8766 -5.50658 0 
11.8817 -5.49928 0 11.8868 -5.49199 0 11.8919 -5.48472 0 
11.8971 -5.47743 0 11.9022 -5.47018 0 11.9073 -5.46295 0 
11.9123 -5.45572 0 11.9174 -5.4485 0 11.9225 -5.4413 0 
11.9276 -5.4341 0 11.9326 -5.42691 0 11.9377 -5.41974 0 
11.9428 -5.41258 0 11.9478 -5.40544 0 11.9529 -5.3983 0 
11.9579 -5.39116 0 11.963 -5.38405 0 11.968 -5.37695 0 
11.9731 -5.36986 0 11.9781 -5.36278 0 11.9831 -5.35571 0 
11.9881 -5.34865 0 11.9931 -5.34161 0 11.9982 -5.33458 0 
12.0032 -5.32756 0 12.0082 -5.32054 0 12.0132 -5.31355 0 
12.0182 -5.30657 0 12.0232 -5.29959 0 12.0282 -5.29262 0 
12.0332 -5.28568 0 12.0382 -5.27874 0 12.0431 -5.27181 0 
12.0481 -5.26489 0 12.0531 -5.25799 0 12.058 -5.2511 0 
12.063 -5.24422 0 12.068 -5.23735 0 12.0729 -5.2305 0 
12.0779 -5.22366 0 12.0828 -5.21682 0 12.0878 -5.21 0 
12.0927 -5.2032 0 12.0977 -5.19641 0 12.1026 -5.18963 0 
12.1075 -5.18285 0 12.1124 -5.1761 0 12.1174 -5.16935 0 
12.1223 -5.16262 0 12.1272 -5.1559 0 12.1321 -5.14918 0 
12.137 -5.14248 0 12.1419 -5.1358 0 12.1468 -5.12912 0 
12.1517 -5.12246 0 12.1566 -5.11581 0 12.1615 -5.10917 0 
12.1664 -5.10255 0 12.1712 -5.09593 0 12.1761 -5.08933 0 
12.181 -5.08274 0 12.1859 -5.07616 0 12.1907 -5.0696 0 
12.1956 -5.06305 0 12.2004 -5.05651 0 12.2053 -5.04997 0 
12.2101 -5.04346 0 12.215 -5.03696 0 12.2198 -5.03046 0 
12.2247 -5.02398 0 12.2295 -5.01752 0 12.2343 -5.01106 0 
12.2392 -5.00462 0 12.244 -4.99818 0 12.2488 -4.99177 0 
12.2536 -4.98536 0 12.2585 -4.97897 0 12.2633 -4.97258 0 
12.2681 -4.96622 0 12.2729 -4.95985 0 12.2777 -4.95351 0 
12.2825 -4.94718 0 12.2873 -4.94085 0 12.292 -4.93455 0 
12.2968 -4.92825 0 12.3016 -4.92196 0 12.3064 -4.91569 0 
12.3112 -4.90943 0 12.316 -4.90319 0 12.3207 -4.89695 0 
12.3255 -4.89073 0 12.3303 -4.88451 0 12.335 -4.87831 0 
12.3398 -4.87213 0 12.3445 -4.86595 0 12.3493 -4.85979 0 
12.354 -4.85364 0 12.3588 -4.8475 0 12.3635 -4.84138 0 
12.3683 -4.83527 0 12.373 -4.82916 0 12.3777 -4.82307 0 
12.3825 -4.817 0 12.3872 -4.81093 0 12.3919 -4.80488 0 
12.3967 -4.79885 0 12.4013 -4.79281 0 12.4061 -4.7868 0 
12.4108 -4.78079 0 12.4155 -4.7748 0 12.4202 -4.76882 0 
12.4249 -4.76286 0 12.4296 -4.7569 0 12.4343 -4.75096 0 
12.439 -4.74502 0 12.4437 -4.7391 0 12.4484 -4.7332 0 
12.4531 -4.7273 0 12.4578 -4.72143 0 12.4624 -4.71555 0 
12.4671 -4.7097 0 12.4718 -4.70385 0 12.4765 -4.69801 0 
12.4812 -4.6922 0 12.4858 -4.68639 0 12.4905 -4.68059 0 
12.4952 -4.67481 0 12.4998 -4.66903 0 12.5045 -4.66327 0 
12.5091 -4.65752 0 12.5138 -4.65178 0 12.5184 -4.64606 0 
12.5231 -4.64035 0 12.5278 -4.63465 0 12.5324 -4.62896 0 
12.5371 -4.62328 0 12.5417 -4.61762 0 12.5463 -4.61197 0 
12.551 -4.60633 0 12.5556 -4.6007 0 12.5602 -4.59508 0 
12.5649 -4.58948 0 12.5695 -4.58388 0 12.5742 -4.57831 0 
12.5788 -4.57274 0 12.5834 -4.56718 0 12.588 -4.56163 0 
12.5926 -4.5561 0 12.5973 -4.55058 0 12.6019 -4.54507 0 
12.6065 -4.53958 0 12.6111 -4.53409 0 12.6157 -4.52862 0 
12.6203 -4.52316 0 12.625 -4.51771 0 12.6296 -4.51227 0 
12.6342 -4.50685 0 12.6388 -4.50143 0 12.6434 -4.49603 0 
12.648 -4.49065 0 12.6526 -4.48527 0 12.6572 -4.4799 0 
12.6618 -4.47454 0 12.6663 -4.4692 0 12.6709 -4.46387 0 
12.6755 -4.45855 0 12.6801 -4.45324 0 12.6847 -4.44795 0 
12.6893 -4.44267 0 12.6939 -4.43739 0 12.6985 -4.43213 0 
12.7031 -4.42688 0 12.7077 -4.42165 0 12.7122 -4.41642 0 
12.7168 -4.41121 0 12.7214 -4.40601 0 12.726 -4.40082 0 
12.7305 -4.39564 0 12.7351 -4.39047 0 12.7397 -4.38531 0 
12.7443 -4.38017 0 12.7488 -4.37504 0 12.7534 -4.36992 0 
12.758 -4.36482 0 12.7626 -4.35972 0 12.7672 -4.35464 0 
12.7717 -4.34956 0 12.7763 -4.3445 0 12.7809 -4.33945 0 
12.7854 -4.33441 0 12.79 -4.32938 0 12.7946 -4.32436 0 
12.7991 -4.31935 0 12.8037 -4.31436 0 12.8082 -4.30938 0 
12.8128 -4.30441 0 12.8174 -4.29945 0 12.8219 -4.2945 0 
12.8265 -4.28957 0 12.8311 -4.28465 0 12.8356 -4.27973 0 
12.8402 -4.27483 0 12.8448 -4.26994 0 12.8493 -4.26506 0 
12.8539 -4.26019 0 12.8584 -4.25534 0 12.863 -4.25049 0 
12.8675 -4.24565 0 12.8721 -4.24082 0 12.8767 -4.23602 0 
12.8812 -4.23121 0 12.8858 -4.22643 0 12.8903 -4.22165 0 
12.8949 -4.21688 0 12.8995 -4.21213 0 12.904 -4.20738 0 
12.9086 -4.20265 0 12.9131 -4.19792 0 12.9177 -4.19322 0 