# vtk DataFile Version 3.0
vtk output
ASCII
DATASET POLYDATA
POINTS 5000 float
1.31664 -30.6692 0 4.57214 -30.6004 0 5.92218 -30.559 0 
6.95807 -30.5223 0 7.83112 -30.488 0 8.59993 -30.4554 0 
9.29458 -30.4239 0 9.93297 -30.3934 0 10.5267 -30.3637 0 
11.084 -30.3345 0 11.6106 -30.306 0 12.1111 -30.2778 0 
12.5889 -30.2501 0 13.0467 -30.2227 0 13.4869 -30.1957 0 
13.9112 -30.1689 0 14.3211 -30.1424 0 14.7181 -30.1162 0 
15.1032 -30.0902 0 15.4773 -30.0644 0 15.8414 -30.0388 0 
16.1961 -30.0134 0 16.5421 -29.9882 0 16.8799 -29.9631 0 
17.2102 -29.9382 0 17.5334 -29.9134 0 17.8497 -29.8887 0 
18.1597 -29.8642 0 18.4637 -29.8398 0 18.7621 -29.8155 0 
19.0551 -29.7914 0 19.3428 -29.7673 0 19.6257 -29.7433 0 
19.9039 -29.7195 0 20.1775 -29.6957 0 20.447 -29.672 0 
20.7122 -29.6484 0 20.9736 -29.6248 0 21.2312 -29.6014 0 
21.4851 -29.578 0 21.7356 -29.5547 0 21.9826 -29.5315 0 
22.2264 -29.5083 0 22.467 -29.4852 0 22.7047 -29.4622 0 
22.9394 -29.4392 0 23.1712 -29.4162 0 23.4003 -29.3932 0 
23.6267 -29.3704 0 23.8505 -29.3476 0 24.0718 -29.3249 0 
24.2907 -29.3022 0 24.5073 -29.2795 0 24.7215 -29.2569 0 
24.9334 -29.2343 0 25.1432 -29.2118 0 25.3509 -29.1893 0 
25.5565 -29.1668 0 25.7601 -29.1443 0 25.9617 -29.1219 0 
26.1615 -29.0996 0 26.3593 -29.0772 0 26.5554 -29.0549 0 
26.7496 -29.0326 0 26.9422 -29.0104 0 27.133 -28.9881 0 
27.3222 -28.9659 0 27.5098 -28.9437 0 27.6957 -28.9215 0 
27.8801 -28.8993 0 28.063 -28.8772 0 28.2444 -28.8551 0 
28.4243 -28.833 0 28.6028 -28.811 0 28.7799 -28.7889 0 
28.9556 -28.7669 0 29.13 -28.7449 0 29.303 -28.7229 0 
29.4748 -28.7009 0 29.6453 -28.6788 0 29.8145 -28.6569 0 
29.9826 -28.6349 0 30.1495 -28.613 0 30.3151 -28.591 0 
30.4795 -28.5691 0 30.6429 -28.5472 0 30.8051 -28.5253 0 
30.9662 -28.5034 0 31.1263 -28.4815 0 31.2852 -28.4595 0 
31.4432 -28.4377 0 31.6 -28.4158 0 31.756 -28.3939 0 
31.9108 -28.3721 0 32.0647 -28.3502 0 32.2177 -28.3284 0 
32.3696 -28.3065 0 32.5207 -28.2847 0 32.6707 -28.2628 0 
32.82 -28.2409 0 32.9683 -28.2191 0 33.1157 -28.1972 0 
33.2623 -28.1754 0 33.408 -28.1536 0 33.5528 -28.1318 0 
33.6969 -28.1099 0 33.8402 -28.0881 0 33.9825 -28.0663 0 
34.1241 -28.0444 0 34.2649 -28.0226 0 34.405 -28.0007 0 
34.5442 -27.9788 0 34.6827 -27.957 0 34.8205 -27.9352 0 
34.9575 -27.9133 0 35.0939 -27.8915 0 35.2295 -27.8696 0 
35.3643 -27.8478 0 35.4985 -27.8259 0 35.6319 -27.804 0 
35.7648 -27.7821 0 35.8969 -27.7602 0 36.0284 -27.7383 0 
36.1591 -27.7165 0 36.2893 -27.6946 0 36.4188 -27.6727 0 
36.5477 -27.6508 0 36.6759 -27.6289 0 36.8035 -27.607 0 
36.9306 -27.5851 0 37.0569 -27.5632 0 37.1828 -27.5411 0 
37.308 -27.5192 0 37.4326 -27.4973 0 37.5567 -27.4753 0 
37.6802 -27.4534 0 37.8031 -27.4314 0 37.9254 -27.4095 0 
38.0472 -27.3875 0 38.1684 -27.3655 0 38.2892 -27.3435 0 
38.4093 -27.3214 0 38.529 -27.2994 0 38.6481 -27.2774 0 
38.7667 -27.2554 0 38.8848 -27.2334 0 39.0024 -27.2113 0 
39.1194 -27.1893 0 39.236 -27.1672 0 39.352 -27.1452 0 
39.4676 -27.1231 0 39.5827 -27.1009 0 39.6973 -27.0788 0 
39.8115 -27.0567 0 39.9251 -27.0346 0 40.0383 -27.0125 0 
40.151 -26.9903 0 40.2633 -26.9682 0 40.3751 -26.9461 0 
40.4865 -26.9239 0 40.5975 -26.9017 0 40.708 -26.8796 0 
40.8181 -26.8573 0 40.9277 -26.8351 0 41.0368 -26.8129 0 
41.1456 -26.7906 0 41.254 -26.7684 0 41.3619 -26.7462 0 
41.4694 -26.7239 0 41.5766 -26.7017 0 41.6832 -26.6794 0 
41.7896 -26.6571 0 41.8954 -26.6347 0 42.0009 -26.6124 0 
42.1061 -26.5901 0 42.2108 -26.5678 0 42.3152 -26.5454 0 
42.4191 -26.5231 0 42.5227 -26.5007 0 42.6258 -26.4784 0 
42.7287 -26.456 0 42.8311 -26.4336 0 42.9332 -26.4112 0 
43.0349 -26.3887 0 43.1363 -26.3663 0 43.2374 -26.3438 0 
43.3379 -26.3214 0 43.4383 -26.2989 0 43.5382 -26.2765 0 
43.6378 -26.254 0 43.7371 -26.2315 0 43.8359 -26.209 0 
43.9345 -26.1865 0 44.0328 -26.1639 0 44.1307 -26.1413 0 
44.2282 -26.1188 0 44.3255 -26.0962 0 44.4224 -26.0737 0 
44.519 -26.0511 0 44.6153 -26.0285 0 44.7112 -26.0059 0 
44.8069 -25.9833 0 44.9022 -25.9606 0 44.9972 -25.938 0 
45.0919 -25.9153 0 45.1863 -25.8926 0 45.2803 -25.8699 0 
45.3741 -25.8472 0 45.4676 -25.8245 0 45.5608 -25.8018 0 
45.6536 -25.7791 0 45.7463 -25.7564 0 45.8385 -25.7337 0 
45.9306 -25.7109 0 46.0222 -25.688 0 46.1137 -25.6653 0 
46.2048 -25.6425 0 46.2956 -25.6197 0 46.3862 -25.5969 0 
46.4765 -25.5741 0 46.5666 -25.5512 0 46.6563 -25.5284 0 
46.7458 -25.5055 0 46.835 -25.4827 0 46.9239 -25.4597 0 
47.0125 -25.4368 0 47.1009 -25.4139 0 47.189 -25.391 0 
47.2769 -25.3681 0 47.3645 -25.3451 0 47.4519 -25.3222 0 
47.5389 -25.2992 0 47.6258 -25.2763 0 47.7123 -25.2533 0 
47.7986 -25.2303 0 47.8847 -25.2072 0 47.9705 -25.1842 0 
48.0561 -25.1612 0 48.1414 -25.1382 0 48.2264 -25.1151 0 
48.3112 -25.0921 0 48.3958 -25.069 0 48.4802 -25.0459 0 
48.5642 -25.0228 0 48.6481 -24.9997 0 48.7317 -24.9765 0 
48.8151 -24.9534 0 48.8982 -24.9303 0 48.9812 -24.9071 0 
49.0639 -24.884 0 49.1463 -24.8608 0 49.2286 -24.8377 0 
49.3105 -24.8145 0 49.3923 -24.7913 0 49.4738 -24.7681 0 
49.5552 -24.7449 0 49.6363 -24.7215 0 49.7171 -24.6983 0 
49.7978 -24.675 0 49.8783 -24.6518 0 49.9584 -24.6285 0 
50.0384 -24.6052 0 50.1182 -24.5819 0 50.1978 -24.5587 0 
50.2772 -24.5353 0 50.3563 -24.512 0 50.4352 -24.4886 0 
50.514 -24.4653 0 50.5925 -24.4419 0 50.6707 -24.4185 0 
50.7489 -24.3952 0 50.8268 -24.3718 0 50.9044 -24.3484 0 
50.982 -24.325 0 51.0593 -24.3016 0 51.1363 -24.2782 0 
51.2132 -24.2547 0 51.2899 -24.2312 0 51.3663 -24.2078 0 
51.4427 -24.1843 0 51.5188 -24.1608 0 51.5946 -24.1373 0 
51.6703 -24.1139 0 51.7459 -24.0904 0 51.8211 -24.0668 0 
51.8963 -24.0433 0 51.9712 -24.0198 0 52.0459 -23.9962 0 
52.1205 -23.9726 0 52.1948 -23.9491 0 52.2691 -23.9255 0 
52.343 -23.9019 0 52.4169 -23.8783 0 52.4905 -23.8547 0 
52.564 -23.8312 0 52.6371 -23.8075 0 52.7102 -23.7839 0 
52.7831 -23.7602 0 52.8559 -23.7365 0 52.9284 -23.7129 0 
53.0007 -23.6892 0 53.073 -23.6656 0 53.145 -23.6419 0 
53.2167 -23.6182 0 53.2884 -23.5945 0 53.3599 -23.5708 0 
53.4312 -23.5471 0 53.5023 -23.5234 0 53.5733 -23.4996 0 
53.6441 -23.4758 0 53.7147 -23.4521 0 53.7851 -23.4283 0 
53.8554 -23.4046 0 53.9256 -23.3808 0 53.9955 -23.357 0 
54.0653 -23.3332 0 54.1348 -23.3094 0 54.2043 -23.2856 0 
54.2736 -23.2617 0 54.3427 -23.2379 0 54.4117 -23.2141 0 
54.4805 -23.1902 0 54.5491 -23.1664 0 54.6175 -23.1425 0 
54.6858 -23.1187 0 54.754 -23.0948 0 54.8219 -23.0709 0 
54.8898 -23.0471 0 54.9575 -23.0231 0 55.025 -22.9992 0 
55.0923 -22.9753 0 55.1595 -22.9513 0 55.2266 -22.9274 0 
55.2935 -22.9035 0 55.3602 -22.8795 0 55.4268 -22.8556 0 
55.4932 -22.8316 0 55.5595 -22.8077 0 55.6257 -22.7837 0 
55.6916 -22.7596 0 55.7574 -22.7356 0 55.8231 -22.7116 0 
55.8886 -22.6877 0 55.954 -22.6636 0 56.0192 -22.6396 0 
56.0843 -22.6156 0 56.1493 -22.5916 0 56.214 -22.5675 0 
56.2786 -22.5435 0 56.3431 -22.5194 0 56.4075 -22.4953 0 
56.4717 -22.4712 0 56.5357 -22.4472 0 56.5997 -22.4231 0 
56.6634 -22.399 0 56.727 -22.3749 0 56.7905 -22.3508 0 
56.8539 -22.3267 0 56.9171 -22.3026 0 56.9801 -22.2785 0 
57.0431 -22.2542 0 57.1059 -22.2301 0 57.1685 -22.206 0 
57.231 -22.1818 0 57.2934 -22.1577 0 57.3557 -22.1335 0 
57.4178 -22.1094 0 57.4797 -22.0852 0 57.5415 -22.061 0 
57.6033 -22.0368 0 57.6648 -22.0125 0 57.7263 -21.9883 0 
57.7875 -21.9641 0 57.8487 -21.9399 0 57.9097 -21.9157 0 
57.9705 -21.8915 0 58.0313 -21.8673 0 58.0919 -21.843 0 
58.1524 -21.8188 0 58.2129 -21.7945 0 58.2731 -21.7703 0 
58.3331 -21.7459 0 58.3932 -21.7217 0 58.453 -21.6974 0 
58.5127 -21.6731 0 58.5722 -21.6488 0 58.6317 -21.6246 0 
58.6911 -21.6003 0 58.7503 -21.576 0 58.8094 -21.5517 0 
58.8683 -21.5274 0 58.9271 -21.5029 0 58.9858 -21.4786 0 
59.0444 -21.4543 0 59.1029 -21.43 0 59.1611 -21.4056 0 
59.2194 -21.3813 0 59.2775 -21.357 0 59.3354 -21.3326 0 
59.3932 -21.3082 0 59.451 -21.2839 0 59.5086 -21.2594 0 
59.566 -21.235 0 59.6234 -21.2107 0 59.6806 -21.1863 0 
59.7377 -21.1619 0 59.7947 -21.1375 0 59.8515 -21.1131 0 
59.9083 -21.0887 0 59.9649 -21.0643 0 60.0214 -21.0399 0 
60.0778 -21.0155 0 60.1341 -20.9909 0 60.1903 -20.9665 0 
60.2463 -20.9421 0 60.3022 -20.9176 0 60.358 -20.8932 0 
60.4137 -20.8688 0 60.4692 -20.8443 0 60.5248 -20.8199 0 
60.5801 -20.7954 0 60.6353 -20.7709 0 60.6904 -20.7464 0 
60.7454 -20.7219 0 60.8003 -20.6974 0 60.8551 -20.6729 0 
60.9097 -20.6485 0 60.9642 -20.624 0 61.0186 -20.5995 0 
61.0731 -20.575 0 61.1272 -20.5505 0 61.1813 -20.526 0 
61.2353 -20.5014 0 61.2892 -20.4768 0 61.3429 -20.4523 0 
61.3966 -20.4278 0 61.4501 -20.4033 0 61.5035 -20.3787 0 
61.5569 -20.3542 0 61.6101 -20.3297 0 61.6632 -20.3051 0 
61.7162 -20.2806 0 61.7691 -20.256 0 61.8218 -20.2314 0 
61.8745 -20.2068 0 61.927 -20.1822 0 61.9795 -20.1577 0 
62.0319 -20.1331 0 62.0841 -20.1085 0 62.1362 -20.084 0 
62.1883 -20.0594 0 62.2401 -20.0348 0 62.292 -20.0102 0 
62.3437 -19.9855 0 62.3953 -19.9609 0 62.4468 -19.9363 0 
62.4982 -19.9117 0 62.5495 -19.8871 0 62.6007 -19.8625 0 
62.6518 -19.8379 0 62.7028 -19.8133 0 62.7536 -19.7886 0 
62.8044 -19.764 0 62.8551 -19.7394 0 62.9057 -19.7147 0 
62.9561 -19.69 0 63.0065 -19.6654 0 63.0568 -19.6408 0 
63.1069 -19.6161 0 63.157 -19.5915 0 63.207 -19.5668 0 
63.2568 -19.5422 0 63.3066 -19.5175 0 63.3562 -19.4929 0 
63.4057 -19.4681 0 63.4552 -19.4434 0 63.5046 -19.4188 0 
63.5538 -19.3941 0 63.603 -19.3694 0 63.652 -19.3448 0 
63.701 -19.3201 0 63.7499 -19.2954 0 63.7986 -19.2707 0 
63.8473 -19.246 0 63.8959 -19.2214 0 63.9443 -19.1966 0 
63.9927 -19.1719 0 64.041 -19.1472 0 64.0891 -19.1225 0 
64.1372 -19.0978 0 64.1852 -19.0731 0 64.2331 -19.0484 0 
64.2809 -19.0237 0 64.3286 -18.999 0 64.3762 -18.9742 0 
64.4238 -18.9494 0 64.4711 -18.9247 0 64.5185 -18.9 0 
64.5657 -18.8753 0 64.6128 -18.8505 0 64.6598 -18.8258 0 
64.7067 -18.8011 0 64.7536 -18.7763 0 64.8004 -18.7516 0 
64.847 -18.7269 0 64.8936 -18.7021 0 64.94 -18.6773 0 
64.9865 -18.6525 0 65.0327 -18.6278 0 65.0789 -18.6031 0 
65.125 -18.5783 0 65.171 -18.5536 0 65.217 -18.5288 0 
65.2627 -18.504 0 65.3085 -18.4793 0 65.3542 -18.4545 0 
[...]
POINT_DATA 5000
VECTORS velocity double
12.6357 -6.59421 0 13.1332 -6.14588 0 13.3642 -5.96985 0 
13.5477 -5.84045 0 13.7053 -5.73589 0 13.8453 -5.64764 0 
13.9722 -5.57131 0 14.0886 -5.50417 0 14.1965 -5.4445 0 
14.2969 -5.39107 0 14.3909 -5.34296 0 14.4792 -5.29948 0 
14.5624 -5.26007 0 14.6409 -5.22432 0 14.7151 -5.19183 0 
14.7854 -5.16232 0 14.852 -5.13556 0 14.9151 -5.11126 0 
14.9751 -5.08926 0 15.0321 -5.0694 0 15.0861 -5.05153 0 
15.1375 -5.03551 0 15.1863 -5.02124 0 15.2326 -5.00859 0 
15.2767 -4.99749 0 15.3184 -4.98783 0 15.358 -4.97958 0 
15.3956 -4.9726 0 15.4311 -4.96684 0 15.4648 -4.96226 0 
15.4967 -4.95878 0 15.5268 -4.95637 0 15.5552 -4.95496 0 
15.5819 -4.95451 0 15.607 -4.95498 0 15.6307 -4.95632 0 
15.6528 -4.95851 0 15.6735 -4.96152 0 15.6928 -4.96527 0 
15.7107 -4.96976 0 15.7273 -4.97495 0 15.7427 -4.98081 0 
15.7568 -4.98733 0 15.7697 -4.99446 0 15.7814 -5.00219 0 
15.792 -5.01049 0 15.8015 -5.01934 0 15.81 -5.02875 0 
15.8173 -5.03863 0 15.8237 -5.049 0 15.8291 -5.05984 0 
15.8335 -5.07113 0 15.837 -5.08285 0 15.8395 -5.09498 0 
15.8412 -5.10752 0 15.842 -5.12043 0 15.8419 -5.13372 0 
15.841 -5.14735 0 15.8394 -5.16135 0 15.8369 -5.17565 0 
15.8336 -5.19027 0 15.8297 -5.20519 0 15.8249 -5.2204 0 
15.8195 -5.23588 0 15.8134 -5.25163 0 15.8066 -5.26764 0 
15.7991 -5.28389 0 15.791 -5.30037 0 15.7823 -5.31709 0 
15.7729 -5.33401 0 15.763 -5.35114 0 15.7524 -5.36846 0 
15.7413 -5.38598 0 15.7297 -5.40367 0 15.7175 -5.42153 0 
15.7047 -5.43956 0 15.6914 -5.45775 0 15.6777 -5.47608 0 
15.6634 -5.49455 0 15.6486 -5.51317 0 15.6334 -5.5319 0 
15.6177 -5.55077 0 15.6015 -5.56974 0 15.585 -5.58881 0 
15.568 -5.60799 0 15.5505 -5.62728 0 15.5327 -5.64664 0 
15.5144 -5.66609 0 15.4958 -5.68563 0 15.4768 -5.70524 0 
15.4574 -5.72492 0 15.4376 -5.74466 0 15.4175 -5.76446 0 
15.3971 -5.78432 0 15.3763 -5.80421 0 15.3552 -5.82417 0 
15.3337 -5.84415 0 15.312 -5.86418 0 15.2899 -5.88424 0 
15.2675 -5.90434 0 15.2449 -5.92446 0 15.222 -5.94459 0 
15.1988 -5.96474 0 15.1753 -5.98491 0 15.1515 -6.00508 0 
15.1275 -6.02527 0 15.1033 -6.04546 0 15.0788 -6.06564 0 
15.054 -6.08582 0 15.0291 -6.10601 0 15.0039 -6.12619 0 
14.9785 -6.14634 0 14.9529 -6.16648 0 14.927 -6.1866 0 
14.901 -6.20671 0 14.8748 -6.2268 0 14.8483 -6.24685 0 
14.8217 -6.26688 0 14.7949 -6.28688 0 14.768 -6.30684 0 
14.7408 -6.32678 0 14.7135 -6.34667 0 14.6861 -6.36653 0 
14.6585 -6.38634 0 14.6307 -6.4061 0 14.6028 -6.42583 0 
14.5747 -6.44551 0 14.5465 -6.46513 0 14.5182 -6.4847 0 
14.4897 -6.50422 0 14.4611 -6.52368 0 14.4324 -6.5431 0 
14.4036 -6.56245 0 14.3746 -6.58174 0 14.3456 -6.60097 0 
14.3164 -6.62014 0 14.2871 -6.63923 0 14.2578 -6.65827 0 
14.2283 -6.67723 0 14.1988 -6.69612 0 14.1691 -6.71495 0 
14.1394 -6.7337 0 14.1096 -6.75239 0 14.0797 -6.771 0 
14.0498 -6.78953 0 14.0197 -6.80798 0 13.9896 -6.82636 0 
13.9594 -6.84466 0 13.9292 -6.86288 0 13.8989 -6.88101 0 
13.8686 -6.89906 0 13.8382 -6.91704 0 13.8078 -6.93492 0 
13.7772 -6.95273 0 13.7467 -6.97044 0 13.7161 -6.98807 0 
13.6855 -7.00561 0 13.6548 -7.02307 0 13.6241 -7.04043 0 
13.5933 -7.0577 0 13.5625 -7.0749 0 13.5317 -7.09199 0 
13.5009 -7.10899 0 13.4701 -7.12589 0 13.4392 -7.1427 0 
13.4083 -7.15942 0 13.3774 -7.17605 0 13.3464 -7.19259 0 
13.3155 -7.20901 0 13.2846 -7.22536 0 13.2536 -7.24159 0 
13.2226 -7.25774 0 13.1917 -7.27378 0 13.1607 -7.28972 0 
13.1297 -7.30557 0 13.0987 -7.32133 0 13.0677 -7.33698 0 
13.0368 -7.35253 0 13.0058 -7.36797 0 12.9749 -7.38331 0 
12.9439 -7.39856 0 12.9129 -7.41371 0 12.882 -7.42875 0 
12.8511 -7.44369 0 12.8202 -7.45853 0 12.7893 -7.47327 0 
12.7585 -7.48789 0 12.7276 -7.50243 0 12.6968 -7.51686 0 
12.666 -7.53117 0 12.6352 -7.54539 0 12.6045 -7.5595 0 
12.5738 -7.57351 0 12.5431 -7.58742 0 12.5124 -7.60121 0 
12.4818 -7.61491 0 12.4512 -7.62851 0 12.4206 -7.64199 0 
12.3901 -7.65537 0 12.3596 -7.66865 0 12.3291 -7.68181 0 
12.2987 -7.69489 0 12.2683 -7.70784 0 12.238 -7.7207 0 
12.2077 -7.73344 0 12.1774 -7.74609 0 12.1472 -7.75862 0 
12.117 -7.77106 0 12.0869 -7.78338 0 12.0568 -7.79561 0 
12.0268 -7.80771 0 11.9968 -7.81973 0 11.9669 -7.83163 0 
11.937 -7.84343 0 11.9072 -7.85511 0 11.8774 -7.8667 0 
11.8477 -7.87819 0 11.8181 -7.88955 0 11.7885 -7.90083 0 
11.7589 -7.91199 0 11.7294 -7.92306 0 11.7 -7.93401 0 
11.6705 -7.94486 0 11.6412 -7.95561 0 11.612 -7.96624 0 
11.5828 -7.97677 0 11.5536 -7.98721 0 11.5245 -7.99754 0 
11.4955 -8.00776 0 11.4665 -8.01789 0 11.4376 -8.0279 0 
11.4088 -8.03781 0 11.38 -8.04763 0 11.3513 -8.05733 0 
11.3227 -8.06693 0 11.2942 -8.07642 0 11.2657 -8.08582 0 
11.2372 -8.09511 0 11.2088 -8.1043 0 11.1806 -8.11338 0 
11.1523 -8.12237 0 11.1242 -8.13126 0 11.0961 -8.14004 0 
11.0681 -8.14872 0 11.0401 -8.15731 0 11.0123 -8.16577 0 
10.9845 -8.17414 0 10.9568 -8.18242 0 10.9291 -8.19061 0 
10.9015 -8.19869 0 10.874 -8.20666 0 10.8465 -8.21454 0 
10.8192 -8.22231 0 10.7919 -8.23 0 10.7647 -8.23757 0 
10.7376 -8.24506 0 10.7105 -8.25243 0 10.6836 -8.25972 0 
10.6567 -8.26691 0 10.6298 -8.274 0 10.6031 -8.28099 0 
10.5764 -8.28788 0 10.5498 -8.29468 0 10.5233 -8.30138 0 
10.4968 -8.308 0 10.4705 -8.3145 0 10.4443 -8.32091 0 
10.4181 -8.32723 0 10.3919 -8.33346 0 10.3659 -8.33958 0 
10.3399 -8.34562 0 10.3141 -8.35156 0 10.2883 -8.35741 0 
10.2625 -8.36317 0 10.2369 -8.36884 0 10.2114 -8.3744 0 
10.1859 -8.37988 0 10.1605 -8.38525 0 10.1352 -8.39054 0 
10.11 -8.39574 0 10.0848 -8.40086 0 10.0598 -8.40588 0 
10.0348 -8.4108 0 10.0099 -8.41564 0 9.98508 -8.42039 0 
9.96032 -8.42505 0 9.93569 -8.42962 0 9.91117 -8.43408 0 
9.88666 -8.43848 0 9.86228 -8.44278 0 9.83795 -8.447 0 
9.81373 -8.45113 0 9.78957 -8.45517 0 9.76549 -8.45913 0 
9.7415 -8.463 0 9.71763 -8.46677 0 9.69382 -8.47047 0 
9.67012 -8.47406 0 9.64644 -8.4776 0 9.62288 -8.48104 0 
9.59943 -8.48439 0 9.57601 -8.48766 0 9.55269 -8.49085 0 
9.5295 -8.49395 0 9.50636 -8.49697 0 9.48331 -8.49991 0 
9.46031 -8.50277 0 9.43744 -8.50554 0 9.41466 -8.50822 0 
9.39193 -8.51083 0 9.3693 -8.51336 0 9.34676 -8.51581 0 
9.32428 -8.51819 0 9.30188 -8.52048 0 9.27958 -8.52269 0 
9.25738 -8.52482 0 9.23527 -8.52686 0 9.21322 -8.52884 0 
9.19129 -8.53072 0 9.16943 -8.53254 0 9.14762 -8.53428 0 
9.1259 -8.53594 0 9.10428 -8.53753 0 9.08276 -8.53903 0 
9.06129 -8.54047 0 9.03992 -8.54183 0 9.01865 -8.54311 0 
8.99743 -8.54432 0 8.97635 -8.54544 0 8.95533 -8.54649 0 
8.93436 -8.54748 0 8.91349 -8.5484 0 8.89268 -8.54924 0 
8.87201 -8.55 0 8.8514 -8.55069 0 8.83084 -8.55132 0 
8.81039 -8.55187 0 8.79003 -8.55235 0 8.76973 -8.55275 0 
8.74956 -8.55308 0 8.72946 -8.55334 0 8.70942 -8.55354 0 
8.68948 -8.55366 0 8.66959 -8.55372 0 8.64981 -8.55371 0 
8.63008 -8.55363 0 8.61046 -8.55349 0 8.59094 -8.55327 0 
8.57148 -8.55299 0 8.55215 -8.55262 0 8.53285 -8.5522 0 
8.5136 -8.55172 0 8.4945 -8.55117 0 8.47542 -8.55056 0 
8.45648 -8.54988 0 8.4376 -8.54913 0 8.41877 -8.54832 0 
8.40006 -8.54745 0 8.3814 -8.54651 0 8.36284 -8.54551 0 
8.34438 -8.54443 0 8.32599 -8.5433 0 8.30766 -8.54211 0 
8.28943 -8.54086 0 8.27126 -8.53955 0 8.25315 -8.53817 0 
8.23514 -8.53674 0 8.21723 -8.53524 0 8.19939 -8.53368 0 
8.1816 -8.53207 0 8.16396 -8.53037 0 8.14634 -8.52864 0 
8.12882 -8.52684 0 8.11137 -8.52498 0 8.09402 -8.52307 0 
8.07672 -8.5211 0 8.05949 -8.51907 0 8.04237 -8.51698 0 
8.0253 -8.51484 0 8.00829 -8.51265 0 7.99139 -8.51039 0 
7.97463 -8.50806 0 7.95785 -8.50569 0 7.94117 -8.50327 0 
7.9246 -8.50079 0 7.90808 -8.49826 0 7.89163 -8.49567 0 
7.87524 -8.49303 0 7.85896 -8.49033 0 7.84273 -8.48759 0 
7.8266 -8.48479 0 7.81059 -8.48191 0 7.79459 -8.47901 0 
7.77865 -8.47605 0 7.76281 -8.47304 0 7.74708 -8.46998 0 
7.73136 -8.46687 0 7.71575 -8.46371 0 7.7002 -8.46049 0 
7.68476 -8.45723 0 7.66933 -8.45392 0 7.65405 -8.45053 0 
7.63883 -8.44712 0 7.62363 -8.44366 0 7.60853 -8.44015 0 
7.59353 -8.43659 0 7.57856 -8.43299 0 7.56369 -8.42934 0 
7.54887 -8.42564 0 7.53412 -8.42189 0 7.51947 -8.4181 0 
7.50488 -8.41426 0 7.4904 -8.41035 0 7.47593 -8.40642 0 
7.46156 -8.40245 0 7.44726 -8.39842 0 7.43302 -8.39436 0 
7.41883 -8.39025 0 7.40476 -8.38609 0 7.39069 -8.38189 0 
7.37674 -8.37765 0 7.36288 -8.37336 0 7.34908 -8.36902 0 
7.33535 -8.36464 0 7.32167 -8.36023 0 7.30806 -8.35577 0 
7.2945 -8.35128 0 7.28105 -8.34674 0 7.26765 -8.34216 0 
7.25427 -8.33754 0 7.24104 -8.33288 0 7.22783 -8.32817 0 
7.21467 -8.32343 0 7.20166 -8.31863 0 7.18867 -8.31381 0 
7.17574 -8.30895 0 7.16286 -8.30405 0 7.15009 -8.29911 0 
7.13733 -8.29413 0 7.12468 -8.28912 0 7.11208 -8.28407 0 
7.09954 -8.27898 0 7.08707 -8.27385 0 7.07473 -8.26867 0 
7.06237 -8.26347 0 7.05012 -8.25823 0 7.03791 -8.25296 0 
7.02573 -8.24765 0 7.01369 -8.24231 0 7.00166 -8.23693 0 
6.9897 -8.23152 0 6.97783 -8.22607 0 6.96598 -8.22059 0 
6.95427 -8.21505 0 6.94258 -8.2095 0 6.93095 -8.20391 0 
6.91937 -8.1983 0 6.90785 -8.19265 0 6.89639 -8.18696 0 
6.88503 -8.18125 0 6.87369 -8.1755 0 6.86244 -8.16972 0 
6.85125 -8.16391 0 6.84008 -8.15806 0 6.82905 -8.15216 0 
6.81803 -8.14626 0 6.80707 -8.14032 0 6.79617 -8.13435 0 
6.78537 -8.12836 0 6.77458 -8.12233 0 6.76384 -8.11627 0 
6.75321 -8.11018 0 6.74259 -8.10407 0 6.73207 -8.09792 0 
6.72164 -8.09173 0 6.71119 -8.08553 0 6.70084 -8.0793 0 
6.69054 -8.07304 0 6.6803 -8.06675 0 6.67012 -8.06044 0 
6.65998 -8.0541 0 6.64991 -8.04773 0 6.63989 -8.04133 0 
6.62993 -8.03491 0 6.62002 -8.02846 0 6.61026 -8.02197 0 
6.60046 -8.01547 0 6.59072 -8.00894 0 6.58107 -8.00239 0 
6.57144 -7.99582 0 6.56186 -7.98922 0 6.55238 -7.98259 0 
6.54291 -7.97594 0 6.53354 -7.96927 0 6.52418 -7.96257 0 
6.51492 -7.95582 0 6.50571 -7.94908 0 6.49651 -7.94231 0 
6.48741 -7.93551 0 6.47832 -7.9287 0 6.46933 -7.92186 0 
6.46038 -7.915 0 6.45145 -7.90812 0 6.44258 -7.90121 0 
6.4338 -7.89429 0 6.42503 -7.88734 0 6.4164 -7.88035 0 
6.40774 -7.87335 0 6.39917 -7.86635 0 6.39061 -7.85931 0 
6.38215 -7.85226 0 6.3737 -7.84519 0 6.3653 -7.83809 0 
6.35699 -7.83098 0 6.3487 -7.82384 0 6.34046 -7.81669 0 
6.33236 -7.8095 0 6.32422 -7.80231 0 6.31613 -7.7951 0 
6.3081 -7.78787 0 6.30012 -7.78062 0 6.29218 -7.77335 0 
6.28431 -7.76607 0 6.27648 -7.75877 0 6.2687 -7.75145 0 
6.26098 -7.74411 0 6.25335 -7.73674 0 6.24572 -7.72937 0 
6.23811 -7.72198 0 6.23059 -7.71458 0 6.22311 -7.70716 0 
6.21566 -7.69972 0 6.20829 -7.69226 0 6.20092 -7.68479 0 
6.19361 -7.67731 0 6.18639 -7.66981 0 6.17918 -7.66229 0 
6.17207 -7.65474 0 6.16496 -7.64719 0 6.15789 -7.63963 0 
6.15089 -7.63205 0 6.14388 -7.62445 0 6.13697 -7.61685 0 
6.1301 -7.60923 0 6.12325 -7.6016 0 6.11648 -7.59395 0 
6.10973 -7.58629 0 6.10307 -7.57859 0 6.09645 -7.57091 0 
6.08984 -7.56321 0 6.08327 -7.55549 0 6.07676 -7.54777 0 
6.07026 -7.54002 0 6.06384 -7.53227 0 6.05747 -7.52451 0 
6.05111 -7.51673 0 6.0448 -7.50894 0 6.03862 -7.50113 0 
6.0324 -7.49331 0 6.02623 -7.48549 0 6.02011 -7.47766 0 
6.01403 -7.46981 0 6.00797 -7.46195 0 6.00199 -7.45409 0 
5.99601 -7.44621 0 5.99013 -7.43833 0 5.98425 -7.43043 0 
5.97842 -7.42252 0 5.97267 -7.41458 0 5.96693 -7.40665 0 
5.9612 -7.39871 0 5.95556 -7.39076 0 5.94991 -7.3828 0 
5.94432 -7.37484 0 5.93881 -7.36687 0 5.93331 -7.35888 0 
5.92782 -7.35088 0 5.92241 -7.34288 0 5.91709 -7.33485 0 
5.91173 -7.32683 0 5.90642 -7.31881 0 5.90115 -7.31077 0 
5.89593 -7.30273 0 5.89075 -7.29468 0 5.88562 -7.28662 0 
5.88049 -7.27855 0 5.87545 -7.27049 0 5.87041 -7.2624 0 
5.86542 -7.25432 0 5.86052 -7.2462 0 5.85562 -7.2381 0 
5.85072 -7.22999 0 5.84586 -7.22188 0 5.84109 -7.21376 0 
5.83633 -7.20563 0 5.83161 -7.1975 0 5.82689 -7.18936 0 
5.82225 -7.18122 0 5.81762 -7.17307 0 5.81308 -7.16489 0 
5.80854 -7.15672 0 5.80404 -7.14856 0 5.79959 -7.14039 0 
5.79514 -7.13221 0 5.79077 -7.12404 0 5.7864 -7.11585 0 
5.78208 -7.10766 0 5.77781 -7.09946 0 5.77353 -7.09126 0 
5.7693 -7.08305 0 5.76519 -7.07483 0 5.761 -7.06661 0 
5.7569 -7.05839 0 5.75283 -7.05017 0 5.74878 -7.04195 0 
5.74476 -7.03372 0 5.74079 -7.02549 0 5.73685 -7.01725 0 
5.73296 -7.00902 0 5.72907 -7.00077 0 5.72527 -6.99251 0 
5.72147 -6.98426 0 5.7177 -6.97601 0 5.71398 -6.96776 0 
5.71026 -6.95951 0 5.70658 -6.95125 0 5.70294 -6.94299 0 
5.69935 -6.93473 0 5.69575 -6.92646 0 5.69224 -6.9182 0 
5.68873 -6.90993 0 5.6853 -6.90164 0 5.68183 -6.89336 0 
5.67844 -6.88509 0 5.67506 -6.87682 0 5.6717 -6.86854 0 
5.6684 -6.86027 0 5.66509 -6.85198 0 5.66186 -6.84371 0 
5.65864 -6.83543 0 5.65542 -6.82714 0 5.65231 -6.81884 0 
5.64917 -6.81055 0 5.6461 -6.80228 0 5.64304 -6.79399 0 
5.63997 -6.7857 0 5.63699 -6.77743 0 5.634 -6.76914 0 
5.63106 -6.76085 0 5.62815 -6.75257 0 5.62524 -6.74428 0 
5.62242 -6.73597 0 5.61959 -6.72769 0 5.6168 -6.71941 0 
5.61405 -6.71113 0 5.61131 -6.70284 0 5.6086 -6.69456 0 
5.60592 -6.68628 0 5.60325 -6.678 0 5.60066 -6.66972 0 
5.59806 -6.66145 0 5.59547 -6.65316 0 5.59299 -6.64487 0 
5.59048 -6.63659 0 5.58799 -6.62832 0 5.58556 -6.62005 0 
5.58315 -6.61178 0 5.58074 -6.60351 0 5.57838 -6.59524 0 
5.57605 -6.58698 0 5.57372 -6.57871 0 5.57142 -6.57045 0 
5.56921 -6.56217 0 5.567 -6.55391 0 5.56478 -6.54565 0 
5.5626 -6.5374 0 5.56046 -6.52915 0 5.55835 -6.5209 0 
5.55624 -6.51266 0 5.55417 -6.50441 0 5.55214 -6.49617 0 
5.55011 -6.48793 0 5.54815 -6.4797 0 5.54623 -6.47145 0 
5.54427 -6.46321 0 5.54238 -6.455 0 5.54049 -6.44677 0 
5.53864 -6.43855 0 5.53679 -6.43033 0 5.53501 -6.42212 0 
5.53322 -6.41391 0 5.53144 -6.4057 0 5.52973 -6.3975 0 
5.52806 -6.38928 0 5.52639 -6.38108 0 5.52471 -6.37289 0 
5.52311 -6.36471 0 5.5215 -6.35652 0 5.5199 -6.34834 0 
5.51836 -6.34017 0 5.51683 -6.33199 0 5.51533 -6.32383 0 
5.51383 -6.31566 0 5.51244 -6.30748 0 5.51101 -6.29933 0 
5.50957 -6.29117 0 5.50821 -6.28303 0 5.50685 -6.27489 0 
5.50548 -6.26675 0 5.50419 -6.25862 0 5.50289 -6.25049 0 
5.50163 -6.24237 0 5.5004 -6.23425 0 5.49917 -6.22614 0 
5.49802 -6.21801 0 5.49683 -6.2099 0 5.4957 -6.20181 0 
5.49457 -6.19371 0 5.49344 -6.18562 0 5.49238 -6.17754 0 
5.49132 -6.16946 0 5.49029 -6.16139 0 5.48926 -6.15332 0 
5.48826 -6.14526 0 5.48734 -6.13718 0 5.48641 -6.12914 0 
5.48548 -6.12109 0 5.48458 -6.11305 0 5.48372 -6.10502 0 
5.48285 -6.09699 0 5.48202 -6.08897 0 5.48118 -6.08095 0 
5.48041 -6.07295 0 5.47964 -6.06495 0 5.47887 -6.05694 0 
5.47821 -6.04893 0 5.4775 -6.04095 0 5.47682 -6.03297 0 
5.47615 -6.025 0 5.4755 -6.01703 0 5.4749 -6.00907 0 
5.47428 -6.00111 0 5.4737 -5.99316 0 5.47315 -5.98523 0 
5.4726 -5.97729 0 5.47216 -5.96935 0 5.47163 -5.96142 0 
5.47118 -5.95351 0 5.47072 -5.9456 0 5.4703 -5.9377 0 
5.46987 -5.9298 0 5.46948 -5.92192 0 5.46911 -5.91404 0 
5.46874 -5.90616 0 5.46841 -5.89829 0 5.46814 -5.89041 0 
5.46788 -5.88257 0 5.4676 -5.87472 0 5.46736 -5.86688 0 
5.46711 -5.85905 0 5.4669 -5.85122 0 5.46671 -5.84341 0 
5.46653 -5.8356 0 5.46637 -5.8278 0 5.46625 -5.82 0 
5.46612 -5.81221 0 5.46607 -5.80441 0 5.466 -5.79664 0 
5.46593 -5.78887 0 5.4659 -5.78112 0 5.46589 -5.77337 0 
5.46588 -5.76563 0 5.4659 -5.75789 0 5.46592 -5.75016 0 
5.46597 -5.74244 0 5.46604 -5.73473 0 5.4662 -5.72701 0 
5.4663 -5.71931 0 5.46644 -5.71163 0 5.46657 -5.70394 0 
5.46674 -5.69627 0 5.46693 -5.68861 0 5.46712 -5.68095 0 
5.46735 -5.6733 0 5.4676 -5.66566 0 5.46785 -5.65803 0 
5.46812 -5.65041 0 5.46847 -5.64278 0 5.46878 -5.63517 0 
5.46911 -5.62757 0 5.46944 -5.61997 0 5.4698 -5.61239 0 
5.47019 -5.60482 0 5.47062 -5.59726 0 5.47103 -5.5897 0 
5.47144 -5.58214 0 5.47192 -5.57461 0 5.47243 -5.56706 0 
5.4729 -5.55953 0 5.4734 -5.55201 0 5.47393 -5.5445 0 
5.47449 -5.53701 0 5.47504 -5.52952 0 5.47558 -5.52203 0 
5.4762 -5.51456 0 5.47681 -5.5071 0 5.47741 -5.49964 0 
5.47812 -5.49218 0 5.47875 -5.48473 0 5.47944 -5.47731 0 
5.48012 -5.46989 0 5.48085 -5.46248 0 5.48155 -5.45507 0 
5.4823 -5.44768 0 5.48307 -5.4403 0 5.48383 -5.43292 0 
5.48463 -5.42556 0 5.48542 -5.41819 0 5.48628 -5.41082 0 
5.48713 -5.40349 0 5.48797 -5.39615 0 5.48885 -5.38883 0 
5.48975 -5.38152 0 5.49065 -5.37421 0 5.49157 -5.36692 0 
5.49249 -5.35963 0 5.49344 -5.35235 0 5.49442 -5.34509 0 
5.49543 -5.33781 0 5.49644 -5.33056 0 5.49747 -5.32333 0 
5.4985 -5.31609 0 5.49952 -5.30886 0 5.50061 -5.30166 0 
5.50169 -5.29446 0 5.50276 -5.28725 0 5.50387 -5.28006 0 
5.50501 -5.27289 0 5.50617 -5.26573 0 5.50733 -5.25857 0 
5.50848 -5.25141 0 5.50967 -5.24427 0 5.51087 -5.23714 0 
5.51211 -5.23003 0 5.51335 -5.22292 0 5.51458 -5.21581 0 
5.51583 -5.20872 0 5.51711 -5.20164 0 5.51843 -5.19457 0 
5.51974 -5.1875 0 5.52104 -5.18044 0 5.5224 -5.17341 0 
5.52376 -5.16637 0 5.52511 -5.15934 0 5.52649 -5.15232 0 
5.52791 -5.14532 0 5.52931 -5.13832 0 5.53074 -5.13134 0 
5.53217 -5.12435 0 5.53363 -5.11738 0 5.53511 -5.11043 0 
5.53658 -5.10348 0 5.53809 -5.09654 0 5.53962 -5.08962 0 
5.54115 -5.0827 0 5.54267 -5.07578 0 5.54422 -5.06888 0 
5.5458 -5.06199 0 5.5474 -5.05511 0 5.54901 -5.04824 0 
5.5506 -5.04138 0 5.55225 -5.03453 0 5.55387 -5.02769 0 
5.55555 -5.02086 0 5.55722 -5.01404 0 5.55888 -5.00722 0 
5.56057 -5.00042 0 5.5623 -4.99363 0 5.56401 -4.98684 0 
5.56576 -4.98007 0 5.56753 -4.97331 0 5.56929 -4.96656 0 
5.57109 -4.95982 0 5.57287 -4.95308 0 5.57469 -4.94636 0 
5.5765 -4.93964 0 5.57833 -4.93294 0 5.5802 -4.92624 0 
5.58206 -4.91956 0 5.58394 -4.91289 0 5.58582 -4.90622 0 
5.58773 -4.89957 0 5.58966 -4.89293 0 5.59159 -4.88629 0 
5.59351 -4.87966 0 5.59549 -4.87305 0 5.59747 -4.86645 0 
5.59944 -4.85985 0 5.60143 -4.85327 0 5.60346 -4.8467 0 
5.60548 -4.84013 0 5.60753 -4.83358 0 5.60957 -4.82703 0 
5.61164 -4.8205 0 5.6137 -4.81397 0 5.61579 -4.80745 0 
5.61791 -4.80095 0 5.62002 -4.79446 0 5.62215 -4.78797 0 
5.62428 -4.7815 0 5.62644 -4.77503 0 5.62863 -4.76858 0 
5.63081 -4.76214 0 5.63302 -4.75571 0 5.63522 -4.74928 0 
5.63745 -4.74287 0 5.63967 -4.73646 0 5.64192 -4.73006 0 
5.64419 -4.72368 0 5.64646 -4.71731 0 5.64872 -4.71094 0 
5.65105 -4.7046 0 5.65333 -4.69824 0 5.65568 -4.69192 0 
5.65801 -4.68559 0 5.66035 -4.67927 0 5.66271 -4.67297 0 
5.66509 -4.66668 0 5.66747 -4.66039 0 5.66988 -4.65412 0 
5.67232 -4.64786 0 5.67471 -4.6416 0 5.67716 -4.63536 0 
5.67962 -4.62913 0 5.68209 -4.62291 0 5.68456 -4.61669 0 
5.68706 -4.61049 0 5.68955 -4.6043 0 5.69206 -4.59812 0 
5.69457 -4.59194 0 5.69711 -4.58577 0 5.69968 -4.57963 0 
5.70224 -4.57348 0 5.70482 -4.56735 0 5.7074 -4.56123 0 
5.71001 -4.55512 0 5.7126 -4.54901 0 5.71523 -4.54292 0 
5.71788 -4.53684 0 5.72053 -4.53077 0 5.7232 -4.52471 0 
5.72587 -4.51866 0 5.72856 -4.51262 0 5.73126 -4.50658 0 
5.73397 -4.50056 0 5.73667 -4.49454 0 5.73941 -4.48854 0 
5.74218 -4.48256 0 5.74493 -4.47657 0 5.74772 -4.47061 0 
5.75049 -4.46464 0 5.7533 -4.45869 0 5.75609 -4.45275 0 
5.75892 -4.44682 0 5.76173 -4.44089 0 5.76458 -4.43498 0 
5.76745 -4.42908 0 5.77032 -4.42319 0 5.77321 -4.41731 0 
5.77609 -4.41144 0 5.77901 -4.40558 0 5.78191 -4.39972 0 
5.78484 -4.39388 0 5.78777 -4.38805 0 5.79072 -4.38222 0 
5.7937 -4.37642 0 5.79668 -4.37062 0 5.79967 -4.36483 0 
5.80267 -4.35904 0 5.8057 -4.35328 0 5.80871 -4.34751 0 
5.81175 -4.34176 0 5.81478 -4.33601 0 5.81784 -4.33028 0 
5.82094 -4.32457 0 5.82402 -4.31885 0 5.82709 -4.31315 0 
5.8302 -4.30745 0 5.83333 -4.30177 0 5.83645 -4.2961 0 
5.8396 -4.29044 0 5.84274 -4.28478 0 5.84592 -4.27914 0 
5.84911 -4.27351 0 5.85231 -4.26789 0 5.85549 -4.26227 0 
5.8587 -4.25667 0 5.86194 -4.25108 0 5.86517 -4.24549 0 
5.86843 -4.23992 0 5.87168 -4.23436 0 5.87496 -4.22881 0 
5.87823 -4.22326 0 5.88154 -4.21773 0 5.88483 -4.2122 0 
5.88815 -4.20668 0 5.8915 -4.20118 0 5.89485 -4.19569 0 
5.89822 -4.19021 0 5.90158 -4.18473 0 5.90497 -4.17927 0 
5.90835 -4.17381 0 5.91176 -4.16837 0 5.91516 -4.16293 0 
5.91859 -4.1575 0 5.92202 -4.15208 0 5.92547 -4.14668 0 
5.92891 -4.14127 0 5.93238 -4.13589 0 5.93588 -4.13051 0 
5.93937 -4.12514 0 5.9429 -4.11979 0 5.94641 -4.11444 0 
5.94995 -4.10911 0 5.95348 -4.10377 0 5.95705 -4.09846 0 
5.9606 -4.09314 0 5.96418 -4.08785 0 5.96776 -4.08255 0 
5.97136 -4.07727 0 5.97499 -4.072 0 5.97861 -4.06674 0 
5.98223 -4.06148 0 5.98587 -4.05624 0 5.98955 -4.05101 0 
5.99321 -4.04579 0 5.99691 -4.04058 0 6.00059 -4.03537 0 
6.00431 -4.03018 0 6.00802 -4.02499 0 6.01175 -4.01982 0 
6.01547 -4.01465 0 6.01923 -4.00949 0 6.02302 -4.00435 0 