# vtk DataFile Version 3.0
vtk output
ASCII
DATASET POLYDATA
POINTS 5000 float
14.758 -39.289 0 18.1638 -38.6473 0 19.5941 -38.3648 0 
20.6963 -38.1438 0 21.6275 -37.9559 0 22.4485 -37.7898 0 
23.1906 -37.6397 0 23.8725 -37.502 0 24.5063 -37.3746 0 
25.1006 -37.2556 0 25.6615 -37.1441 0 26.1938 -37.0389 0 
26.7012 -36.9395 0 27.1863 -36.8451 0 27.6518 -36.7553 0 
28.0995 -36.6698 0 28.531 -36.5881 0 28.9479 -36.5099 0 
29.3513 -36.4351 0 29.7421 -36.3634 0 30.1215 -36.2945 0 
30.49 -36.2283 0 30.8485 -36.1646 0 31.1976 -36.1034 0 
31.5379 -36.0443 0 31.8698 -35.9874 0 32.1937 -35.9324 0 
32.5102 -35.8794 0 32.8197 -35.8282 0 33.1225 -35.7788 0 
33.4188 -35.7309 0 33.709 -35.6847 0 33.9935 -35.6399 0 
34.2722 -35.5966 0 34.5457 -35.5546 0 34.8141 -35.514 0 
35.0775 -35.4745 0 35.3362 -35.4362 0 35.5904 -35.3992 0 
35.8402 -35.3632 0 36.0858 -35.3283 0 36.3274 -35.2944 0 
36.565 -35.2614 0 36.7987 -35.2294 0 37.0289 -35.1983 0 
37.2556 -35.1681 0 37.4788 -35.1387 0 37.6987 -35.11 0 
37.9154 -35.0822 0 38.1289 -35.0551 0 38.3395 -35.0287 0 
38.547 -35.003 0 38.7518 -34.978 0 38.9538 -34.9536 0 
39.1531 -34.9298 0 39.3497 -34.9066 0 39.5439 -34.884 0 
39.7355 -34.8619 0 39.9248 -34.8402 0 40.1117 -34.8192 0 
40.2963 -34.7986 0 40.4787 -34.7786 0 40.6589 -34.7589 0 
40.837 -34.7397 0 41.013 -34.721 0 41.1871 -34.7026 0 
41.3591 -34.6846 0 41.5292 -34.6671 0 41.6975 -34.6498 0 
41.8639 -34.6329 0 42.0285 -34.6164 0 42.1914 -34.6001 0 
42.3525 -34.5842 0 42.512 -34.5686 0 42.6698 -34.5533 0 
42.8261 -34.5383 0 42.9808 -34.5236 0 43.1339 -34.5091 0 
43.2855 -34.4948 0 43.4357 -34.4807 0 43.5845 -34.467 0 
43.7319 -34.4534 0 43.8778 -34.4401 0 44.0224 -34.4269 0 
44.1656 -34.414 0 44.3076 -34.4012 0 44.4483 -34.3887 0 
44.5877 -34.3763 0 44.726 -34.364 0 44.863 -34.3519 0 
44.9989 -34.34 0 45.1335 -34.3282 0 45.2671 -34.3165 0 
45.3996 -34.305 0 45.5308 -34.2936 0 45.6612 -34.2824 0 
45.7904 -34.2712 0 45.9186 -34.2602 0 46.0457 -34.2493 0 
46.1719 -34.2383 0 46.2971 -34.2276 0 46.4213 -34.2169 0 
46.5446 -34.2064 0 46.667 -34.1959 0 46.7884 -34.1855 0 
46.909 -34.1751 0 47.0287 -34.1649 0 47.1474 -34.1546 0 
47.2654 -34.1445 0 47.3825 -34.1344 0 47.4988 -34.1242 0 
47.6142 -34.1142 0 47.7289 -34.1043 0 47.8428 -34.0943 0 
47.9559 -34.0845 0 48.0683 -34.0746 0 48.1799 -34.0648 0 
48.2908 -34.055 0 48.4009 -34.0452 0 48.5103 -34.0354 0 
48.6191 -34.0256 0 48.7271 -34.0159 0 48.8345 -34.0061 0 
48.9412 -33.9964 0 49.0472 -33.9867 0 49.1526 -33.977 0 
49.2574 -33.9674 0 49.3615 -33.9577 0 49.465 -33.9479 0 
49.5679 -33.9382 0 49.6701 -33.9285 0 49.7719 -33.9187 0 
49.873 -33.909 0 49.9735 -33.8992 0 50.0735 -33.8895 0 
50.1729 -33.8797 0 50.2717 -33.8699 0 50.3701 -33.86 0 
50.4678 -33.8502 0 50.5651 -33.8403 0 50.6618 -33.8304 0 
50.758 -33.8204 0 50.8538 -33.8104 0 50.949 -33.8004 0 
51.0437 -33.7904 0 51.1379 -33.7803 0 51.2317 -33.7702 0 
51.3249 -33.7601 0 51.4177 -33.7499 0 51.5101 -33.7397 0 
51.602 -33.7294 0 51.6935 -33.719 0 51.7844 -33.7086 0 
51.8751 -33.6983 0 51.9652 -33.6878 0 52.0549 -33.6773 0 
52.1442 -33.6668 0 52.2331 -33.6562 0 52.3215 -33.6456 0 
52.4096 -33.6349 0 52.4973 -33.6241 0 52.5846 -33.6133 0 
52.6716 -33.6024 0 52.7581 -33.5915 0 52.8442 -33.5805 0 
52.93 -33.5695 0 53.0154 -33.5584 0 53.1004 -33.5472 0 
53.1851 -33.536 0 53.2694 -33.5248 0 53.3534 -33.5134 0 
53.437 -33.5021 0 53.5203 -33.4905 0 53.6032 -33.479 0 
53.6859 -33.4674 0 53.7682 -33.4558 0 53.8502 -33.4441 0 
53.9318 -33.4323 0 54.0131 -33.4205 0 54.0941 -33.4085 0 
54.1748 -33.3966 0 54.2552 -33.3845 0 54.3352 -33.3724 0 
54.4151 -33.3601 0 54.4946 -33.3479 0 54.5738 -33.3355 0 
54.6526 -33.3231 0 54.7313 -33.3107 0 54.8096 -33.2981 0 
54.8877 -33.2855 0 54.9655 -33.2729 0 55.043 -33.2601 0 
55.1202 -33.2473 0 55.1972 -33.2343 0 55.2739 -33.2213 0 
55.3504 -33.2082 0 55.4266 -33.1951 0 55.5025 -33.1819 0 
55.5782 -33.1686 0 55.6536 -33.1553 0 55.7288 -33.1418 0 
55.8038 -33.1284 0 55.8785 -33.1148 0 55.9529 -33.1011 0 
56.0272 -33.0873 0 56.1012 -33.0735 0 56.1749 -33.0596 0 
56.2485 -33.0456 0 56.3217 -33.0316 0 56.3949 -33.0175 0 
56.4677 -33.0033 0 56.5404 -32.989 0 56.6128 -32.9746 0 
56.685 -32.9602 0 56.757 -32.9456 0 56.8288 -32.931 0 
56.9004 -32.9163 0 56.9717 -32.9016 0 57.0429 -32.8868 0 
57.1138 -32.8718 0 57.1846 -32.8569 0 57.2551 -32.8418 0 
57.3255 -32.8267 0 57.3957 -32.8115 0 57.4657 -32.796 0 
57.5355 -32.7806 0 57.6051 -32.7652 0 57.6745 -32.7497 0 
57.7437 -32.734 0 57.8128 -32.7183 0 57.8817 -32.7026 0 
57.9504 -32.6867 0 58.0189 -32.6708 0 58.0872 -32.6548 0 
58.1553 -32.6386 0 58.2234 -32.6224 0 58.2912 -32.6061 0 
58.3588 -32.5898 0 58.4263 -32.5734 0 58.4936 -32.5569 0 
58.5607 -32.5403 0 58.6277 -32.5236 0 58.6945 -32.5069 0 
58.7612 -32.4901 0 58.8277 -32.4732 0 58.8941 -32.4561 0 
58.9602 -32.439 0 59.0263 -32.4219 0 59.0922 -32.4047 0 
59.1579 -32.3874 0 59.2234 -32.37 0 59.2889 -32.3526 0 
59.3541 -32.335 0 59.4193 -32.3174 0 59.4843 -32.2998 0 
59.5491 -32.282 0 59.6139 -32.264 0 59.6784 -32.2461 0 
59.7429 -32.2281 0 59.8071 -32.21 0 59.8713 -32.1919 0 
59.9352 -32.1736 0 59.9991 -32.1553 0 60.0629 -32.1369 0 
60.1265 -32.1185 0 60.1899 -32.0999 0 60.2533 -32.0812 0 
60.3165 -32.0625 0 60.3796 -32.0437 0 60.4425 -32.0248 0 
60.5054 -32.0059 0 60.568 -31.9869 0 60.6306 -31.9678 0 
60.6931 -31.9487 0 60.7554 -31.9294 0 60.8176 -31.9101 0 
60.8797 -31.8907 0 60.9417 -31.8711 0 61.0035 -31.8516 0 
61.0652 -31.8319 0 61.1269 -31.8123 0 61.1883 -31.7925 0 
61.2497 -31.7726 0 61.311 -31.7527 0 61.3721 -31.7327 0 
61.4331 -31.7127 0 61.494 -31.6925 0 61.5548 -31.6722 0 
61.6156 -31.6519 0 61.6761 -31.6315 0 61.7366 -31.6111 0 
61.797 -31.5905 0 61.8572 -31.57 0 61.9174 -31.5493 0 
61.9775 -31.5286 0 62.0374 -31.5077 0 62.0972 -31.4869 0 
62.157 -31.4658 0 62.2167 -31.4448 0 62.2762 -31.4237 0 
62.3356 -31.4025 0 62.3949 -31.3813 0 62.4542 -31.36 0 
62.5132 -31.3386 0 62.5723 -31.3171 0 62.6312 -31.2956 0 
62.6901 -31.274 0 62.7488 -31.2523 0 62.8075 -31.2305 0 
62.866 -31.2087 0 62.9244 -31.1868 0 62.9828 -31.1649 0 
63.041 -31.1428 0 63.0992 -31.1208 0 63.1573 -31.0986 0 
63.2153 -31.0764 0 63.2731 -31.0541 0 63.3309 -31.0317 0 
63.3887 -31.0092 0 63.4463 -30.9867 0 63.5038 -30.9641 0 
63.5613 -30.9415 0 63.6186 -30.9188 0 63.6758 -30.896 0 
63.733 -30.8732 0 63.7901 -30.8503 0 63.8471 -30.8274 0 
63.904 -30.8043 0 63.9609 -30.7811 0 64.0176 -30.7579 0 
64.0743 -30.7347 0 64.1308 -30.7114 0 64.1873 -30.6881 0 
64.2437 -30.6647 0 64.3 -30.6412 0 64.3563 -30.6176 0 
64.4125 -30.594 0 64.4685 -30.5703 0 64.5245 -30.5466 0 
64.5805 -30.5227 0 64.6363 -30.4988 0 64.692 -30.4749 0 
64.7477 -30.4509 0 64.8033 -30.4268 0 64.8588 -30.4027 0 
64.9143 -30.3785 0 64.9696 -30.3543 0 65.0249 -30.33 0 
65.0801 -30.3056 0 65.1352 -30.2811 0 65.1903 -30.2566 0 
65.2453 -30.2321 0 65.3001 -30.2075 0 65.355 -30.1828 0 
65.4097 -30.1581 0 65.4644 -30.1333 0 65.519 -30.1085 0 
65.5735 -30.0836 0 65.628 -30.0586 0 65.6823 -30.0336 0 
65.7367 -30.0084 0 65.7909 -29.9833 0 65.8451 -29.9581 0 
65.8991 -29.9328 0 65.9531 -29.9075 0 66.0071 -29.8822 0 
66.061 -29.8568 0 66.1147 -29.8313 0 66.1685 -29.8058 0 
66.2221 -29.7802 0 66.2758 -29.7544 0 66.3293 -29.7287 0 
66.3827 -29.703 0 66.4361 -29.6772 0 66.4893 -29.6513 0 
66.5426 -29.6254 0 66.5957 -29.5994 0 66.6488 -29.5734 0 
66.7019 -29.5473 0 66.7549 -29.5212 0 66.8077 -29.495 0 
66.8606 -29.4687 0 66.9133 -29.4424 0 66.966 -29.416 0 
67.0186 -29.3896 0 67.0712 -29.3632 0 67.1236 -29.3367 0 
67.1761 -29.3101 0 67.2284 -29.2836 0 67.2807 -29.2569 0 
67.3329 -29.2302 0 67.3851 -29.2033 0 67.4372 -29.1765 0 
67.4892 -29.1497 0 67.5412 -29.1228 0 67.593 -29.0958 0 
67.6449 -29.0688 0 67.6966 -29.0418 0 67.7483 -29.0147 0 
67.7999 -28.9876 0 67.8515 -28.9604 0 67.9031 -28.933 0 
67.9545 -28.9057 0 68.0059 -28.8784 0 68.0572 -28.851 0 
68.1084 -28.8236 0 68.1596 -28.7961 0 68.2107 -28.7686 0 
68.2618 -28.741 0 68.3128 -28.7134 0 68.3637 -28.6858 0 
68.4145 -28.6581 0 68.4654 -28.6302 0 68.5161 -28.6024 0 
68.5668 -28.5746 0 68.6174 -28.5467 0 68.668 -28.5188 0 
68.7185 -28.4908 0 68.7689 -28.4628 0 68.8193 -28.4347 0 
68.8696 -28.4066 0 68.9198 -28.3785 0 68.97 -28.3502 0 
69.0201 -28.322 0 69.0702 -28.2937 0 69.1202 -28.2654 0 
69.1701 -28.2371 0 69.22 -28.2087 0 69.2698 -28.1802 0 
69.3196 -28.1518 0 69.3692 -28.1232 0 69.4188 -28.0947 0 
69.4684 -28.0661 0 69.518 -28.0373 0 69.5674 -28.0087 0 
69.6168 -27.98 0 69.6661 -27.9512 0 69.7154 -27.9224 0 
69.7646 -27.8936 0 69.8137 -27.8647 0 69.8628 -27.8358 0 
69.9118 -27.8069 0 69.9608 -27.7779 0 70.0097 -27.7488 0 
70.0586 -27.7197 0 70.1074 -27.6906 0 70.1561 -27.6615 0 
70.2048 -27.6323 0 70.2533 -27.6031 0 70.3019 -27.5739 0 
70.3504 -27.5446 0 70.3988 -27.5153 0 70.4472 -27.486 0 
70.4955 -27.4565 0 70.5438 -27.4271 0 70.592 -27.3976 0 
70.6401 -27.3681 0 70.6882 -27.3386 0 70.7362 -27.3091 0 
70.7841 -27.2795 0 70.8321 -27.2499 0 70.8799 -27.2202 0 
70.9276 -27.1906 0 70.9754 -27.1608 0 71.0231 -27.131 0 
71.0707 -27.1012 0 71.1182 -27.0714 0 71.1657 -27.0416 0 
71.2131 -27.0117 0 71.2605 -26.9818 0 71.3078 -26.9518 0 
71.355 -26.9219 0 71.4022 -26.8919 0 71.4493 -26.8619 0 
71.4964 -26.8317 0 71.5435 -26.8016 0 71.5904 -26.7715 0 
71.6373 -26.7413 0 71.6842 -26.7112 0 71.7309 -26.681 0 
71.7776 -26.6507 0 71.8243 -26.6205 0 71.8709 -26.5902 0 
71.9175 -26.5599 0 71.964 -26.5295 0 72.0104 -26.499 0 
72.0568 -26.4686 0 72.1031 -26.4382 0 72.1493 -26.4078 0 
72.1955 -26.3773 0 72.2417 -26.3468 0 72.2877 -26.3162 0 
72.3338 -26.2857 0 72.3797 -26.2551 0 72.4256 -26.2245 0 
72.4715 -26.1937 0 72.5173 -26.1631 0 72.5631 -26.1324 0 
72.6087 -26.1017 0 72.6543 -26.0709 0 72.6998 -26.0402 0 
72.7453 -26.0094 0 72.7908 -25.9786 0 72.8362 -25.9477 0 
72.8815 -25.9169 0 72.9268 -25.886 0 72.972 -25.855 0 
73.0172 -25.8241 0 73.0622 -25.7931 0 73.1073 -25.7622 0 
73.1522 -25.7312 0 73.1972 -25.7002 0 73.242 -25.6691 0 
73.2868 -25.6381 0 73.3315 -25.607 0 73.3762 -25.5759 0 
73.4208 -25.5447 0 73.4654 -25.5135 0 73.5099 -25.4823 0 
[...]
POINT_DATA 5000
VECTORS velocity double
18.1664 -13.397 0 17.9589 -12.6405 0 17.8742 -12.3077 0 
17.8088 -12.0475 0 17.753 -11.8263 0 17.703 -11.631 0 
17.6569 -11.4547 0 17.6135 -11.2933 0 17.5723 -11.1441 0 
17.5327 -11.0052 0 17.4943 -10.8752 0 17.457 -10.7531 0 
17.4204 -10.6379 0 17.3845 -10.529 0 17.3491 -10.4259 0 
17.3141 -10.3279 0 17.2795 -10.2348 0 17.2452 -10.1461 0 
17.2112 -10.0616 0 17.1774 -9.98099 0 17.1437 -9.90398 0 
17.1101 -9.83039 0 17.0767 -9.76002 0 17.0434 -9.6927 0 
17.0101 -9.62825 0 16.9769 -9.56653 0 16.9437 -9.50744 0 
16.9106 -9.45079 0 16.8776 -9.39648 0 16.8445 -9.34441 0 
16.8115 -9.29448 0 16.7784 -9.24662 0 16.7454 -9.20068 0 
16.7124 -9.15663 0 16.6794 -9.11437 0 16.6464 -9.07383 0 
16.6135 -9.03495 0 16.5805 -8.99765 0 16.5475 -8.96186 0 
16.5145 -8.92754 0 16.4816 -8.89461 0 16.4486 -8.86304 0 
16.4157 -8.83277 0 16.3828 -8.80376 0 16.3498 -8.77594 0 
16.3169 -8.74928 0 16.284 -8.72375 0 16.2512 -8.6993 0 
16.2183 -8.6759 0 16.1855 -8.65349 0 16.1527 -8.63204 0 
16.1199 -8.61153 0 16.0871 -8.59192 0 16.0544 -8.57319 0 
16.0217 -8.5553 0 15.9891 -8.53822 0 15.9565 -8.52192 0 
15.9239 -8.50638 0 15.8914 -8.49159 0 15.8589 -8.47749 0 
15.8265 -8.46408 0 15.7941 -8.45133 0 15.7617 -8.43921 0 
15.7294 -8.42773 0 15.6972 -8.41684 0 15.665 -8.40652 0 
15.6329 -8.39678 0 15.6009 -8.38757 0 15.5689 -8.37889 0 
15.537 -8.37072 0 15.5051 -8.36304 0 15.4733 -8.35583 0 
15.4416 -8.34909 0 15.41 -8.34279 0 15.3784 -8.33692 0 
15.3469 -8.33147 0 15.3155 -8.32642 0 15.2842 -8.32177 0 
15.253 -8.31749 0 15.2218 -8.31359 0 15.1907 -8.31004 0 
15.1597 -8.30683 0 15.1288 -8.30396 0 15.098 -8.30141 0 
15.0673 -8.29917 0 15.0366 -8.29723 0 15.0061 -8.29559 0 
14.9757 -8.29423 0 14.9453 -8.29315 0 14.9151 -8.29233 0 
14.8849 -8.29177 0 14.8549 -8.29146 0 14.8249 -8.29139 0 
14.795 -8.29155 0 14.7653 -8.29193 0 14.7356 -8.29254 0 
14.7061 -8.29336 0 14.6767 -8.29438 0 14.6473 -8.2956 0 
14.6181 -8.29701 0 14.589 -8.29861 0 14.56 -8.30038 0 
14.5311 -8.30233 0 14.5023 -8.30444 0 14.4736 -8.30672 0 
14.4451 -8.30915 0 14.4166 -8.31173 0 14.3883 -8.31446 0 
14.36 -8.31733 0 14.3319 -8.32033 0 14.304 -8.32347 0 
14.2761 -8.32673 0 14.2483 -8.33011 0 14.2207 -8.33361 0 
14.1931 -8.33723 0 14.1657 -8.34095 0 14.1384 -8.34478 0 
14.1112 -8.34871 0 14.0842 -8.35274 0 14.0572 -8.35686 0 
14.0304 -8.36107 0 14.0037 -8.36536 0 13.9771 -8.36974 0 
13.9507 -8.3742 0 13.9243 -8.37874 0 13.8981 -8.38334 0 
13.872 -8.38803 0 13.8461 -8.39277 0 13.8202 -8.39758 0 
13.7945 -8.40246 0 13.7689 -8.40738 0 13.7434 -8.41237 0 
13.718 -8.41741 0 13.6928 -8.4225 0 13.6677 -8.42764 0 
13.6427 -8.43283 0 13.6178 -8.43805 0 13.5931 -8.44332 0 
13.5685 -8.44863 0 13.544 -8.45397 0 13.5196 -8.45935 0 
13.4954 -8.46476 0 13.4713 -8.4702 0 13.4473 -8.47567 0 
13.4234 -8.48117 0 13.3997 -8.48669 0 13.376 -8.49223 0 
13.3525 -8.49779 0 13.3292 -8.50338 0 13.3059 -8.50897 0 
13.2828 -8.51459 0 13.2598 -8.52021 0 13.237 -8.52585 0 
13.2142 -8.5315 0 13.1916 -8.53716 0 13.1691 -8.54283 0 
13.1468 -8.5485 0 13.1245 -8.55418 0 13.1024 -8.55986 0 
13.0804 -8.56555 0 13.0585 -8.57123 0 13.0368 -8.57691 0 
13.0152 -8.58259 0 12.9937 -8.58827 0 12.9723 -8.59394 0 
12.9511 -8.5996 0 12.9299 -8.60526 0 12.9089 -8.61092 0 
12.8881 -8.61656 0 12.8673 -8.6222 0 12.8467 -8.62782 0 
12.8262 -8.63343 0 12.8058 -8.63902 0 12.7856 -8.6446 0 
12.7655 -8.65017 0 12.7454 -8.65572 0 12.7255 -8.66125 0 
12.7058 -8.66677 0 12.6862 -8.67227 0 12.6667 -8.67774 0 
12.6473 -8.6832 0 12.628 -8.68863 0 12.6088 -8.69404 0 
12.5899 -8.69942 0 12.5709 -8.70479 0 12.5522 -8.71013 0 
12.5335 -8.71544 0 12.515 -8.72074 0 12.4966 -8.726 0 
12.4783 -8.73124 0 12.4601 -8.73644 0 12.442 -8.74162 0 
12.4241 -8.74677 0 12.4063 -8.75188 0 12.3887 -8.75697 0 
12.3711 -8.76203 0 12.3536 -8.76705 0 12.3363 -8.77205 0 
12.3191 -8.77701 0 12.302 -8.78193 0 12.2851 -8.78682 0 
12.2682 -8.79168 0 12.2515 -8.79651 0 12.2348 -8.80129 0 
12.2184 -8.80604 0 12.202 -8.81075 0 12.1858 -8.81542 0 
12.1696 -8.82007 0 12.1536 -8.82467 0 12.1377 -8.82923 0 
12.1219 -8.83375 0 12.1062 -8.83824 0 12.0907 -8.84269 0 
12.0753 -8.8471 0 12.06 -8.85145 0 12.0448 -8.85577 0 
12.0297 -8.86006 0 12.0147 -8.86429 0 11.9999 -8.86849 0 
11.9851 -8.87265 0 11.9705 -8.87677 0 11.956 -8.88084 0 
11.9416 -8.88487 0 11.9273 -8.88886 0 11.9132 -8.89279 0 
11.8992 -8.89668 0 11.8852 -8.90054 0 11.8714 -8.90435 0 
11.8577 -8.90811 0 11.8441 -8.91182 0 11.8306 -8.9155 0 
11.8172 -8.91913 0 11.804 -8.92271 0 11.7908 -8.92624 0 
11.7778 -8.92972 0 11.7649 -8.93315 0 11.7521 -8.93655 0 
11.7394 -8.9399 0 11.7268 -8.94319 0 11.7144 -8.94644 0 
11.702 -8.94964 0 11.6897 -8.9528 0 11.6776 -8.95591 0 
11.6656 -8.95896 0 11.6536 -8.96198 0 11.6419 -8.96492 0 
11.6302 -8.96783 0 11.6186 -8.9707 0 11.607 -8.97351 0 
11.5957 -8.97628 0 11.5844 -8.97899 0 11.5732 -8.98166 0 
11.5622 -8.98427 0 11.5512 -8.98684 0 11.5404 -8.98935 0 
11.5296 -8.99181 0 11.5191 -8.99422 0 11.5085 -8.99658 0 
11.4981 -8.99889 0 11.4878 -9.00115 0 11.4776 -9.00336 0 
11.4675 -9.00552 0 11.4575 -9.00763 0 11.4476 -9.00969 0 
11.4378 -9.0117 0 11.4281 -9.01365 0 11.4186 -9.01554 0 
11.4091 -9.01739 0 11.3998 -9.01919 0 11.3905 -9.02094 0 
11.3813 -9.02264 0 11.3723 -9.02428 0 11.3633 -9.02588 0 
11.3544 -9.02742 0 11.3457 -9.02891 0 11.337 -9.03035 0 
11.3285 -9.03173 0 11.3201 -9.03305 0 11.3117 -9.03433 0 
11.3035 -9.03556 0 11.2953 -9.03674 0 11.2873 -9.03786 0 
11.2794 -9.03893 0 11.2715 -9.03996 0 11.2638 -9.04092 0 
11.2561 -9.04184 0 11.2485 -9.0427 0 11.2412 -9.04349 0 
11.2338 -9.04425 0 11.2265 -9.04496 0 11.2194 -9.04561 0 
11.2123 -9.04621 0 11.2053 -9.04676 0 11.1985 -9.04726 0 
11.1917 -9.0477 0 11.185 -9.04809 0 11.1785 -9.04843 0 
11.172 -9.0487 0 11.1656 -9.04893 0 11.1593 -9.04912 0 
11.1531 -9.04924 0 11.147 -9.04932 0 11.141 -9.04935 0 
11.1351 -9.04931 0 11.1293 -9.04923 0 11.1236 -9.0491 0 
11.1179 -9.04892 0 11.1124 -9.04868 0 11.107 -9.04837 0 
11.1016 -9.04803 0 11.0964 -9.04764 0 11.0912 -9.04719 0 
11.0861 -9.04669 0 11.0811 -9.04615 0 11.0762 -9.04555 0 
11.0714 -9.0449 0 11.0667 -9.04419 0 11.0621 -9.04343 0 
11.0576 -9.0426 0 11.0532 -9.04174 0 11.0488 -9.04084 0 
11.0445 -9.03987 0 11.0404 -9.03886 0 11.0363 -9.03779 0 
11.0323 -9.03668 0 11.0284 -9.03551 0 11.0245 -9.03429 0 
11.0208 -9.03302 0 11.0172 -9.03168 0 11.0136 -9.03031 0 
11.0101 -9.02889 0 11.0067 -9.02742 0 11.0034 -9.02589 0 
11.0002 -9.02431 0 10.9971 -9.02269 0 10.994 -9.02102 0 
10.991 -9.01929 0 10.9882 -9.01752 0 10.9854 -9.01569 0 
10.9827 -9.0138 0 10.9801 -9.01187 0 10.9775 -9.0099 0 
10.9751 -9.00787 0 10.9727 -9.0058 0 10.9704 -9.00367 0 
10.9681 -9.0015 0 10.966 -8.99928 0 10.964 -8.99701 0 
10.962 -8.99469 0 10.9602 -8.9923 0 10.9583 -8.98988 0 
10.9566 -8.98741 0 10.9549 -8.9849 0 10.9534 -8.98234 0 
10.9519 -8.97972 0 10.9505 -8.97706 0 10.9491 -8.97435 0 
10.9479 -8.97159 0 10.9467 -8.96879 0 10.9456 -8.96594 0 
10.9446 -8.96302 0 10.9436 -8.96007 0 10.9428 -8.95708 0 
10.942 -8.95404 0 10.9412 -8.95095 0 10.9406 -8.94781 0 
10.94 -8.94463 0 10.9395 -8.9414 0 10.9391 -8.93813 0 
10.9387 -8.93481 0 10.9385 -8.93142 0 10.9383 -8.928 0 
10.9382 -8.92454 0 10.9382 -8.92104 0 10.9382 -8.91748 0 
10.9383 -8.91389 0 10.9384 -8.91025 0 10.9387 -8.90656 0 
10.939 -8.90283 0 10.9393 -8.89905 0 10.9398 -8.89523 0 
10.9404 -8.89134 0 10.941 -8.88743 0 10.9416 -8.88348 0 
10.9424 -8.87948 0 10.9432 -8.87543 0 10.9441 -8.87134 0 
10.945 -8.86721 0 10.946 -8.86304 0 10.9471 -8.85882 0 
10.9482 -8.85456 0 10.9495 -8.85024 0 10.9508 -8.84589 0 
10.9521 -8.8415 0 10.9535 -8.83707 0 10.955 -8.83259 0 
10.9565 -8.82808 0 10.9581 -8.82352 0 10.9598 -8.81892 0 
10.9616 -8.81428 0 10.9633 -8.8096 0 10.9653 -8.80485 0 
10.9672 -8.80008 0 10.9692 -8.79528 0 10.9713 -8.79043 0 
10.9734 -8.78554 0 10.9756 -8.78061 0 10.9778 -8.77564 0 
10.9801 -8.77063 0 10.9825 -8.76558 0 10.9849 -8.7605 0 
10.9874 -8.75537 0 10.99 -8.75018 0 10.9926 -8.74497 0 
10.9953 -8.73973 0 10.998 -8.73444 0 11.0008 -8.72912 0 
11.0036 -8.72376 0 11.0066 -8.71836 0 11.0095 -8.71292 0 
11.0125 -8.70745 0 11.0156 -8.70193 0 11.0188 -8.69636 0 
11.022 -8.69077 0 11.0253 -8.68515 0 11.0286 -8.67948 0 
11.0319 -8.67379 0 11.0354 -8.66805 0 11.0388 -8.66228 0 
11.0423 -8.65647 0 11.0459 -8.65063 0 11.0496 -8.64475 0 
11.0533 -8.63883 0 11.0571 -8.63286 0 11.0609 -8.62687 0 
11.0647 -8.62085 0 11.0686 -8.6148 0 11.0726 -8.60871 0 
11.0766 -8.60258 0 11.0806 -8.59642 0 11.0847 -8.59023 0 
11.0889 -8.584 0 11.0931 -8.57774 0 11.0975 -8.57142 0 
11.1018 -8.5651 0 11.1061 -8.55874 0 11.1105 -8.55234 0 
11.115 -8.54592 0 11.1195 -8.53946 0 11.124 -8.53297 0 
11.1286 -8.52645 0 11.1333 -8.5199 0 11.138 -8.51331 0 
11.1428 -8.50667 0 11.1476 -8.50002 0 11.1524 -8.49334 0 
11.1573 -8.48663 0 11.1622 -8.47989 0 11.1672 -8.47312 0 
11.1722 -8.46632 0 11.1773 -8.45949 0 11.1824 -8.45262 0 
11.1876 -8.44574 0 11.1927 -8.43881 0 11.198 -8.43184 0 
11.2033 -8.42486 0 11.2087 -8.41785 0 11.214 -8.41082 0 
11.2194 -8.40375 0 11.2249 -8.39666 0 11.2304 -8.38954 0 
11.2359 -8.38239 0 11.2415 -8.37522 0 11.2471 -8.36801 0 
11.2528 -8.36076 0 11.2585 -8.3535 0 11.2642 -8.34622 0 
11.27 -8.33891 0 11.2758 -8.33157 0 11.2817 -8.32421 0 
11.2876 -8.31682 0 11.2935 -8.30941 0 11.2994 -8.30196 0 
11.3054 -8.2945 0 11.3115 -8.28701 0 11.3176 -8.27947 0 
11.3237 -8.27193 0 11.3299 -8.26436 0 11.336 -8.25678 0 
11.3423 -8.24916 0 11.3485 -8.24153 0 11.3548 -8.23386 0 
11.3611 -8.22618 0 11.3675 -8.21848 0 11.3738 -8.21074 0 
11.3803 -8.20296 0 11.3868 -8.19519 0 11.3933 -8.18739 0 
11.3998 -8.17957 0 11.4063 -8.17172 0 11.4129 -8.16387 0 
11.4195 -8.15598 0 11.4262 -8.14807 0 11.4328 -8.14014 0 
11.4395 -8.13219 0 11.4463 -8.12422 0 11.4531 -8.1162 0 
11.4599 -8.10819 0 11.4667 -8.10016 0 11.4736 -8.09211 0 
11.4805 -8.08404 0 11.4874 -8.07595 0 11.4943 -8.06784 0 
11.5013 -8.05971 0 11.5083 -8.05156 0 11.5153 -8.04339 0 
11.5224 -8.03518 0 11.5295 -8.02697 0 11.5366 -8.01875 0 
11.5437 -8.01051 0 11.5508 -8.00225 0 11.558 -7.99398 0 
11.5652 -7.98568 0 11.5725 -7.97737 0 11.5797 -7.96904 0 
11.587 -7.9607 0 11.5944 -7.95231 0 11.6017 -7.94394 0 
11.609 -7.93554 0 11.6164 -7.92713 0 11.6238 -7.91871 0 
11.6312 -7.91027 0 11.6386 -7.90181 0 11.6461 -7.89334 0 
11.6536 -7.88485 0 11.6611 -7.87635 0 11.6686 -7.86783 0 
11.6762 -7.85927 0 11.6838 -7.85073 0 11.6914 -7.84217 0 
11.699 -7.8336 0 11.7066 -7.82501 0 11.7142 -7.8164 0 
11.7219 -7.80779 0 11.7296 -7.79916 0 11.7373 -7.79053 0 
11.745 -7.78187 0 11.7528 -7.77318 0 11.7606 -7.7645 0 
11.7684 -7.75581 0 11.7761 -7.74711 0 11.784 -7.7384 0 
11.7918 -7.72967 0 11.7996 -7.72093 0 11.8075 -7.71218 0 
11.8153 -7.70342 0 11.8232 -7.69465 0 11.8312 -7.68584 0 
11.8391 -7.67705 0 11.8471 -7.66825 0 11.855 -7.65944 0 
11.863 -7.65061 0 11.871 -7.64178 0 11.879 -7.63294 0 
11.887 -7.62408 0 11.895 -7.61523 0 11.903 -7.60636 0 
11.9111 -7.59748 0 11.9192 -7.58856 0 11.9273 -7.57967 0 
11.9353 -7.57076 0 11.9434 -7.56184 0 11.9515 -7.55292 0 
11.9596 -7.54399 0 11.9678 -7.53506 0 11.9759 -7.52611 0 
11.9841 -7.51716 0 11.9922 -7.5082 0 12.0005 -7.49921 0 
12.0087 -7.49023 0 12.0168 -7.48125 0 12.025 -7.47226 0 
12.0333 -7.46327 0 12.0415 -7.45427 0 12.0497 -7.44527 0 
12.058 -7.43625 0 12.0662 -7.42724 0 12.0745 -7.41821 0 
12.0827 -7.40919 0 12.0911 -7.40013 0 12.0994 -7.39109 0 
12.1076 -7.38204 0 12.1159 -7.37299 0 12.1242 -7.36394 0 
12.1325 -7.35488 0 12.1409 -7.34582 0 12.1492 -7.33675 0 
12.1575 -7.32769 0 12.1658 -7.31861 0 12.1742 -7.3095 0 
12.1826 -7.30042 0 12.1909 -7.29134 0 12.1993 -7.28225 0 
12.2076 -7.27316 0 12.216 -7.26407 0 12.2244 -7.25497 0 
12.2328 -7.24587 0 12.2411 -7.23677 0 12.2495 -7.22766 0 
12.2579 -7.21856 0 12.2664 -7.20943 0 12.2747 -7.20031 0 
12.2832 -7.1912 0 12.2916 -7.18209 0 12.2999 -7.17297 0 
12.3083 -7.16386 0 12.3168 -7.15474 0 12.3252 -7.14562 0 
12.3336 -7.1365 0 12.342 -7.12738 0 12.3505 -7.11823 0 
12.3589 -7.10911 0 12.3673 -7.09999 0 12.3757 -7.09087 0 
12.3841 -7.08174 0 12.3926 -7.07262 0 12.401 -7.0635 0 
12.4094 -7.05438 0 12.4178 -7.04526 0 12.4263 -7.03614 0 
12.4347 -7.02702 0 12.4432 -7.01788 0 12.4516 -7.00875 0 
12.46 -6.99964 0 12.4684 -6.99052 0 12.4769 -6.98141 0 
12.4853 -6.9723 0 12.4937 -6.96319 0 12.5021 -6.95408 0 
12.5105 -6.94497 0 12.5189 -6.93586 0 12.5274 -6.92673 0 
12.5358 -6.91763 0 12.5442 -6.90854 0 12.5527 -6.89944 0 
12.561 -6.89035 0 12.5695 -6.88126 0 12.5778 -6.87217 0 
12.5862 -6.86308 0 12.5946 -6.854 0 12.603 -6.84492 0 
12.6115 -6.83582 0 12.6199 -6.82674 0 12.6282 -6.81768 0 
12.6366 -6.80861 0 12.645 -6.79955 0 12.6534 -6.7905 0 
12.6617 -6.78144 0 12.6701 -6.77239 0 12.6784 -6.76335 0 
12.6868 -6.75431 0 12.6951 -6.74527 0 12.7035 -6.73621 0 
12.7119 -6.72719 0 12.7202 -6.71816 0 12.7286 -6.70915 0 
12.7369 -6.70014 0 12.7452 -6.69113 0 12.7535 -6.68213 0 
12.7618 -6.67313 0 12.7701 -6.66414 0 12.7784 -6.65515 0 
12.7867 -6.64614 0 12.795 -6.63717 0 12.8033 -6.6282 0 
12.8116 -6.61924 0 12.8198 -6.61028 0 12.8281 -6.60133 0 
12.8364 -6.59239 0 12.8446 -6.58345 0 12.8528 -6.57452 0 
12.8611 -6.56559 0 12.8693 -6.55667 0 12.8776 -6.54774 0 
12.8858 -6.53883 0 12.894 -6.52993 0 12.9022 -6.52104 0 
12.9104 -6.51215 0 12.9185 -6.50327 0 12.9267 -6.49441 0 
12.9349 -6.48554 0 12.943 -6.47668 0 12.9512 -6.46784 0 
12.9594 -6.45897 0 12.9675 -6.45013 0 12.9756 -6.4413 0 
12.9838 -6.43249 0 12.9919 -6.42368 0 13 -6.41487 0 
13.0081 -6.40608 0 13.0162 -6.39729 0 13.0242 -6.38852 0 
13.0323 -6.37974 0 13.0404 -6.37096 0 13.0485 -6.36221 0 
13.0565 -6.35346 0 13.0645 -6.34473 0 13.0726 -6.336 0 
13.0806 -6.32727 0 13.0886 -6.31857 0 13.0966 -6.30986 0 
13.1045 -6.30117 0 13.1125 -6.29249 0 13.1205 -6.28382 0 
13.1285 -6.27513 0 13.1364 -6.26646 0 13.1444 -6.25782 0 
13.1523 -6.24918 0 13.1602 -6.24055 0 13.1681 -6.23194 0 
13.176 -6.22333 0 13.1839 -6.21473 0 13.1918 -6.20614 0 
13.1996 -6.19755 0 13.2075 -6.18896 0 13.2154 -6.1804 0 
13.2232 -6.17185 0 13.231 -6.16331 0 13.2388 -6.15478 0 
13.2466 -6.14626 0 13.2544 -6.13775 0 13.2622 -6.12924 0 
13.27 -6.12076 0 13.2777 -6.11228 0 13.2855 -6.10381 0 
13.2933 -6.09533 0 13.301 -6.08688 0 13.3087 -6.07844 0 
13.3164 -6.07001 0 13.3241 -6.0616 0 13.3318 -6.05319 0 
13.3394 -6.0448 0 13.3471 -6.03641 0 13.3548 -6.02804 0 
13.3624 -6.01968 0 13.3701 -6.01131 0 13.3777 -6.00296 0 
13.3853 -5.99464 0 13.3929 -5.98632 0 13.4005 -5.97802 0 
13.408 -5.96972 0 13.4156 -5.96143 0 13.4231 -5.95317 0 
13.4306 -5.9449 0 13.4382 -5.93665 0 13.4457 -5.92839 0 
13.4532 -5.92017 0 13.4607 -5.91195 0 13.4682 -5.90375 0 
13.4757 -5.89556 0 13.4831 -5.88738 0 13.4906 -5.87921 0 
13.498 -5.87105 0 13.5054 -5.86291 0 13.5128 -5.85478 0 
13.5202 -5.84666 0 13.5276 -5.83852 0 13.535 -5.83043 0 
13.5423 -5.82234 0 13.5497 -5.81427 0 13.557 -5.80621 0 
13.5643 -5.79816 0 13.5716 -5.79013 0 13.5789 -5.7821 0 
13.5862 -5.77409 0 13.5934 -5.76609 0 13.6008 -5.75808 0 
13.608 -5.75011 0 13.6152 -5.74215 0 13.6224 -5.73419 0 
13.6297 -5.72625 0 13.6368 -5.71833 0 13.644 -5.71042 0 
13.6512 -5.70252 0 13.6584 -5.69463 0 13.6655 -5.68676 0 
13.6726 -5.67889 0 13.6798 -5.67103 0 13.6869 -5.66319 0 
13.694 -5.65537 0 13.7011 -5.64755 0 13.7082 -5.63975 0 
13.7152 -5.63197 0 13.7223 -5.6242 0 13.7293 -5.61644 0 
13.7363 -5.60869 0 13.7433 -5.60096 0 13.7504 -5.59322 0 
13.7574 -5.58551 0 13.7643 -5.57781 0 13.7713 -5.57013 0 
13.7782 -5.56246 0 13.7852 -5.55481 0 13.7921 -5.54716 0 
13.799 -5.53954 0 13.8059 -5.53192 0 13.8128 -5.52431 0 
13.8197 -5.51671 0 13.8265 -5.50913 0 13.8334 -5.50156 0 
13.8402 -5.49401 0 13.8471 -5.48648 0 13.8539 -5.47895 0 
13.8606 -5.47144 0 13.8674 -5.46395 0 13.8742 -5.45646 0 
13.881 -5.449 0 13.8877 -5.44153 0 13.8945 -5.43407 0 
13.9012 -5.42664 0 13.9079 -5.41922 0 13.9146 -5.41182 0 
13.9213 -5.40443 0 13.928 -5.39706 0 13.9347 -5.3897 0 
13.9413 -5.38234 0 13.9479 -5.375 0 13.9546 -5.36769 0 
13.9612 -5.36035 0 13.9678 -5.35306 0 13.9744 -5.34578 0 
13.981 -5.33852 0 13.9875 -5.33125 0 13.9941 -5.32402 0 
14.0006 -5.31679 0 14.0072 -5.30957 0 14.0137 -5.30237 0 
14.0202 -5.29518 0 14.0267 -5.28801 0 14.0332 -5.28085 0 
14.0396 -5.2737 0 14.0461 -5.26656 0 14.0525 -5.25944 0 
14.059 -5.25234 0 14.0654 -5.24525 0 14.0718 -5.23816 0 
14.0782 -5.2311 0 14.0846 -5.22405 0 14.0909 -5.21702 0 
14.0973 -5.20999 0 14.1036 -5.20298 0 14.11 -5.19599 0 
14.1163 -5.18901 0 14.1226 -5.18203 0 14.1289 -5.17508 0 
14.1352 -5.16814 0 14.1415 -5.16121 0 14.1478 -5.1543 0 
14.154 -5.14739 0 14.1603 -5.14051 0 14.1665 -5.13364 0 
14.1727 -5.12678 0 14.1789 -5.11993 0 14.1851 -5.11311 0 
14.1913 -5.10629 0 14.1975 -5.09948 0 14.2036 -5.09269 0 
14.2098 -5.08592 0 14.2159 -5.07916 0 14.2221 -5.07241 0 
14.2282 -5.06567 0 14.2343 -5.05896 0 14.2404 -5.05225 0 
14.2465 -5.04556 0 14.2525 -5.03888 0 14.2586 -5.03221 0 
14.2646 -5.02556 0 14.2707 -5.01892 0 14.2767 -5.01229 0 
14.2827 -5.00569 0 14.2887 -4.9991 0 14.2947 -4.99251 0 
14.3007 -4.98594 0 14.3067 -4.97939 0 14.3126 -4.97285 0 
14.3185 -4.96632 0 14.3245 -4.9598 0 14.3304 -4.95331 0 
14.3363 -4.94682 0 14.3422 -4.94035 0 14.3481 -4.93389 0 
14.354 -4.92744 0 14.3599 -4.92102 0 14.3658 -4.9146 0 
14.3716 -4.90819 0 14.3774 -4.9018 0 14.3833 -4.89543 0 
14.3891 -4.88907 0 14.3949 -4.88272 0 14.4007 -4.87639 0 
14.4065 -4.87006 0 14.4123 -4.86376 0 14.418 -4.85746 0 
14.4238 -4.85118 0 14.4295 -4.84491 0 14.4353 -4.83866 0 
14.441 -4.83243 0 14.4467 -4.8262 0 14.4524 -4.81999 0 
14.4581 -4.81379 0 14.4638 -4.80761 0 14.4695 -4.80144 0 
14.4751 -4.79528 0 14.4808 -4.78914 0 14.4864 -4.78301 0 
14.4921 -4.7769 0 14.4977 -4.77079 0 14.5033 -4.7647 0 
14.5089 -4.75863 0 14.5145 -4.75257 0 14.5201 -4.74651 0 
14.5257 -4.74049 0 14.5312 -4.73446 0 14.5368 -4.72846 0 
14.5424 -4.72246 0 14.5479 -4.71648 0 14.5534 -4.71051 0 
14.5589 -4.70456 0 14.5644 -4.69862 0 14.5699 -4.69269 0 
14.5754 -4.68679 0 14.5809 -4.68088 0 14.5864 -4.675 0 
14.5919 -4.66912 0 14.5973 -4.66327 0 14.6027 -4.65742 0 
14.6082 -4.65159 0 14.6136 -4.64577 0 14.619 -4.63996 0 
14.6244 -4.63417 0 14.6298 -4.62838 0 14.6352 -4.62262 0 
14.6406 -4.61687 0 14.646 -4.61113 0 14.6514 -4.60541 0 
14.6567 -4.59969 0 14.6621 -4.59399 0 14.6674 -4.58831 0 
14.6727 -4.58264 0 14.678 -4.57698 0 14.6834 -4.57133 0 
14.6887 -4.5657 0 14.694 -4.56008 0 14.6993 -4.55447 0 
14.7045 -4.54888 0 14.7098 -4.5433 0 14.7151 -4.53773 0 
14.7203 -4.53218 0 14.7256 -4.52663 0 14.7308 -4.52111 0 
14.736 -4.51559 0 14.7413 -4.51009 0 14.7465 -4.5046 0 
14.7517 -4.49913 0 14.7569 -4.49366 0 14.7621 -4.48821 0 
14.7673 -4.48277 0 14.7724 -4.47735 0 14.7776 -4.47194 0 
14.7828 -4.46654 0 14.7879 -4.46116 0 14.7931 -4.45578 0 
14.7982 -4.45042 0 14.8033 -4.44508 0 14.8084 -4.43974 0 
14.8136 -4.43443 0 14.8187 -4.42911 0 14.8238 -4.42382 0 
14.8289 -4.41854 0 14.834 -4.41327 0 14.839 -4.40801 0 
14.8441 -4.40277 0 14.8492 -4.39754 0 14.8542 -4.39232 0 
14.8593 -4.38712 0 14.8643 -4.38192 0 14.8693 -4.37674 0 
14.8744 -4.37157 0 14.8794 -4.36641 0 14.8844 -4.36127 0 
14.8894 -4.35614 0 14.8944 -4.35102 0 14.8994 -4.34592 0 
14.9044 -4.34082 0 14.9094 -4.33574 0 14.9143 -4.33067 0 
14.9193 -4.32562 0 14.9243 -4.32058 0 14.9292 -4.31555 0 
14.9342 -4.31053 0 14.9391 -4.30552 0 14.9441 -4.30053 0 
14.949 -4.29555 0 14.9539 -4.29059 0 14.9588 -4.28562 0 
14.9637 -4.28068 0 14.9686 -4.27575 0 14.9735 -4.27083 0 
14.9785 -4.26593 0 14.9833 -4.26103 0 14.9882 -4.25615 0 
14.9931 -4.25128 0 14.998 -4.24643 0 15.0028 -4.24158 0 
15.0077 -4.23675 0 15.0125 -4.23192 0 15.0174 -4.22711 0 
15.0222 -4.22231 0 15.0271 -4.21753 0 15.0319 -4.21276 0 
15.0367 -4.20799 0 15.0416 -4.20325 0 15.0464 -4.19851 0 
15.0512 -4.19379 0 15.056 -4.18908 0 15.0608 -4.18438 0 
15.0656 -4.17968 0 15.0703 -4.17501 0 15.0751 -4.17034 0 
15.0799 -4.16569 0 15.0847 -4.16105 0 15.0894 -4.15642 0 
15.0942 -4.1518 0 15.0989 -4.14719 0 15.1037 -4.1426 0 
15.1085 -4.13801 0 15.1132 -4.13345 0 15.1179 -4.12889 0 
15.1227 -4.12434 0 15.1274 -4.1198 0 15.1321 -4.11528 0 
15.1368 -4.11076 0 15.1416 -4.10626 0 15.1463 -4.10178 0 