# vtk DataFile Version 3.0
vtk output
ASCII
DATASET POLYDATA
POINTS 5000 float
7.01114 -33.9688 0 10.4168 -33.6689 0 11.8402 -33.5333 0 
12.9354 -33.4259 0 13.8599 -33.3335 0 14.6748 -33.2511 0 
15.4113 -33.1758 0 16.0883 -33.1062 0 16.7178 -33.0412 0 
17.3084 -32.9801 0 17.8661 -32.9222 0 18.3958 -32.8672 0 
18.9012 -32.8147 0 19.3848 -32.7645 0 19.8494 -32.7163 0 
20.2967 -32.67 0 20.7283 -32.6253 0 21.1458 -32.5822 0 
21.5502 -32.5406 0 21.9425 -32.5003 0 22.3238 -32.4613 0 
22.6948 -32.4234 0 23.0561 -32.3866 0 23.4083 -32.3509 0 
23.7522 -32.3161 0 24.0881 -32.2823 0 24.4163 -32.2492 0 
24.7375 -32.217 0 25.052 -32.1857 0 25.3601 -32.155 0 
25.6621 -32.1251 0 25.9582 -32.0958 0 26.249 -32.0672 0 
26.5343 -32.0392 0 26.8146 -32.0118 0 27.0901 -31.9849 0 
27.3609 -31.9585 0 27.6272 -31.9326 0 27.8892 -31.9073 0 
28.1471 -31.8824 0 28.4011 -31.858 0 28.6511 -31.834 0 
28.8975 -31.8104 0 29.1401 -31.7872 0 29.3795 -31.7644 0 
29.6155 -31.742 0 29.8482 -31.7199 0 30.0778 -31.6981 0 
30.3042 -31.6767 0 30.5278 -31.6556 0 30.7485 -31.6347 0 
30.9664 -31.6142 0 31.1817 -31.594 0 31.3942 -31.574 0 
31.6042 -31.5543 0 31.8117 -31.5348 0 32.0169 -31.5156 0 
32.2196 -31.4966 0 32.4201 -31.4777 0 32.6183 -31.4591 0 
32.8143 -31.4407 0 33.0082 -31.4226 0 33.2001 -31.4046 0 
33.3899 -31.3868 0 33.5777 -31.3691 0 33.7637 -31.3517 0 
33.9477 -31.3343 0 34.1298 -31.3172 0 34.3102 -31.3001 0 
34.4888 -31.2832 0 34.6657 -31.2665 0 34.8408 -31.2499 0 
35.0143 -31.2334 0 35.1863 -31.2171 0 35.3566 -31.2008 0 
35.5253 -31.1847 0 35.6927 -31.1687 0 35.8584 -31.1528 0 
36.0227 -31.1369 0 36.1856 -31.1211 0 36.347 -31.1055 0 
36.5072 -31.0899 0 36.666 -31.0745 0 36.8234 -31.0591 0 
36.9795 -31.0437 0 37.1344 -31.0285 0 37.288 -31.0133 0 
37.4403 -30.9982 0 37.5916 -30.9831 0 37.7415 -30.968 0 
37.8904 -30.953 0 38.038 -30.9381 0 38.1846 -30.9232 0 
38.3301 -30.9084 0 38.4744 -30.8937 0 38.6178 -30.8789 0 
38.76 -30.8642 0 38.9012 -30.8496 0 39.0414 -30.8349 0 
39.1806 -30.8202 0 39.3189 -30.8056 0 39.4561 -30.7911 0 
39.5924 -30.7765 0 39.7278 -30.762 0 39.8622 -30.7475 0 
39.9958 -30.7331 0 40.1285 -30.7186 0 40.2602 -30.7041 0 
40.3912 -30.6897 0 40.5213 -30.6753 0 40.6505 -30.6608 0 
40.7789 -30.6463 0 40.9064 -30.6319 0 41.0332 -30.6175 0 
41.1592 -30.6031 0 41.2845 -30.5887 0 41.4089 -30.5743 0 
41.5326 -30.5598 0 41.6556 -30.5454 0 41.7777 -30.531 0 
41.8993 -30.5164 0 42.02 -30.502 0 42.1401 -30.4875 0 
42.2594 -30.473 0 42.3781 -30.4585 0 42.4961 -30.444 0 
42.6135 -30.4295 0 42.7301 -30.415 0 42.8461 -30.4004 0 
42.9615 -30.3858 0 43.0763 -30.3712 0 43.1904 -30.3565 0 
43.304 -30.3419 0 43.4168 -30.3272 0 43.5292 -30.3125 0 
43.6409 -30.2978 0 43.752 -30.2831 0 43.8625 -30.2683 0 
43.9725 -30.2535 0 44.0819 -30.2387 0 44.1908 -30.2239 0 
44.299 -30.2089 0 44.4069 -30.194 0 44.5141 -30.1791 0 
44.6208 -30.1641 0 44.7269 -30.1491 0 44.8326 -30.1341 0 
44.9377 -30.119 0 45.0424 -30.1039 0 45.1465 -30.0888 0 
45.2501 -30.0736 0 45.3533 -30.0583 0 45.4559 -30.043 0 
45.5582 -30.0277 0 45.6599 -30.0124 0 45.7611 -29.9971 0 
45.8619 -29.9817 0 45.9622 -29.9662 0 46.0621 -29.9507 0 
46.1616 -29.9352 0 46.2606 -29.9197 0 46.3592 -29.9041 0 
46.4573 -29.8883 0 46.555 -29.8727 0 46.6523 -29.8569 0 
46.7491 -29.8412 0 46.8456 -29.8254 0 46.9417 -29.8095 0 
47.0373 -29.7936 0 47.1326 -29.7777 0 47.2274 -29.7617 0 
47.3219 -29.7457 0 47.416 -29.7295 0 47.5096 -29.7134 0 
47.603 -29.6972 0 47.6959 -29.681 0 47.7885 -29.6647 0 
47.8807 -29.6484 0 47.9725 -29.6321 0 48.0639 -29.6157 0 
48.1551 -29.5992 0 48.2458 -29.5828 0 48.3362 -29.5662 0 
48.4263 -29.5495 0 48.5161 -29.5329 0 48.6055 -29.5162 0 
48.6945 -29.4995 0 48.7832 -29.4827 0 48.8716 -29.4659 0 
48.9597 -29.449 0 49.0474 -29.4321 0 49.1348 -29.4151 0 
49.2219 -29.3981 0 49.3087 -29.3809 0 49.3951 -29.3638 0 
49.4813 -29.3467 0 49.5672 -29.3294 0 49.6527 -29.3122 0 
49.738 -29.2949 0 49.8229 -29.2775 0 49.9076 -29.2601 0 
49.992 -29.2426 0 50.076 -29.2251 0 50.1598 -29.2075 0 
50.2434 -29.1898 0 50.3266 -29.1722 0 50.4095 -29.1545 0 
50.4922 -29.1367 0 50.5746 -29.1189 0 50.6567 -29.101 0 
50.7385 -29.0831 0 50.8202 -29.0651 0 50.9014 -29.0471 0 
50.9825 -29.0291 0 51.0633 -29.0108 0 51.1439 -28.9927 0 
51.2242 -28.9745 0 51.3041 -28.9562 0 51.3839 -28.9379 0 
51.4634 -28.9195 0 51.5427 -28.9011 0 51.6217 -28.8826 0 
51.7005 -28.8641 0 51.7791 -28.8455 0 51.8574 -28.8268 0 
51.9354 -28.8082 0 52.0133 -28.7894 0 52.0909 -28.7707 0 
52.1682 -28.7519 0 52.2454 -28.733 0 52.3223 -28.7141 0 
52.399 -28.6951 0 52.4754 -28.6761 0 52.5517 -28.657 0 
52.6277 -28.6379 0 52.7035 -28.6186 0 52.779 -28.5994 0 
52.8544 -28.5801 0 52.9295 -28.5608 0 53.0044 -28.5415 0 
53.0791 -28.522 0 53.1536 -28.5026 0 53.2279 -28.4831 0 
53.3019 -28.4635 0 53.3759 -28.4439 0 53.4495 -28.4241 0 
53.523 -28.4044 0 53.5963 -28.3846 0 53.6694 -28.3648 0 
53.7423 -28.345 0 53.8149 -28.3251 0 53.8874 -28.3051 0 
53.9596 -28.2851 0 54.0318 -28.2651 0 54.1036 -28.245 0 
54.1754 -28.2248 0 54.2469 -28.2045 0 54.3182 -28.1843 0 
54.3894 -28.164 0 54.4604 -28.1437 0 54.5311 -28.1233 0 
54.6017 -28.1028 0 54.6721 -28.0824 0 54.7424 -28.0618 0 
54.8124 -28.0413 0 54.8823 -28.0206 0 54.952 -27.9999 0 
55.0215 -27.9792 0 55.0909 -27.9584 0 55.16 -27.9376 0 
55.2291 -27.9167 0 55.2979 -27.8958 0 55.3665 -27.8749 0 
55.4351 -27.8539 0 55.5034 -27.8329 0 55.5715 -27.8118 0 
55.6395 -27.7906 0 55.7074 -27.7694 0 55.7751 -27.7481 0 
55.8426 -27.7269 0 55.91 -27.7056 0 55.9771 -27.6842 0 
56.0441 -27.6628 0 56.111 -27.6414 0 56.1777 -27.6199 0 
56.2443 -27.5983 0 56.3107 -27.5768 0 56.3769 -27.555 0 
56.443 -27.5334 0 56.5089 -27.5117 0 56.5748 -27.4899 0 
56.6404 -27.4681 0 56.7059 -27.4463 0 56.7712 -27.4244 0 
56.8364 -27.4025 0 56.9014 -27.3805 0 56.9663 -27.3585 0 
57.0311 -27.3363 0 57.0957 -27.3142 0 57.1602 -27.2921 0 
57.2244 -27.2699 0 57.2886 -27.2477 0 57.3527 -27.2254 0 
57.4165 -27.2031 0 57.4803 -27.1808 0 57.5438 -27.1584 0 
57.6074 -27.1359 0 57.6707 -27.1135 0 57.7339 -27.0908 0 
57.7969 -27.0683 0 57.8599 -27.0457 0 57.9226 -27.0231 0 
57.9853 -27.0004 0 58.0478 -26.9777 0 58.1102 -26.9549 0 
58.1724 -26.9321 0 58.2345 -26.9093 0 58.2965 -26.8864 0 
58.3584 -26.8634 0 58.4201 -26.8404 0 58.4817 -26.8174 0 
58.5432 -26.7944 0 58.6045 -26.7713 0 58.6657 -26.7482 0 
58.7268 -26.7251 0 58.7878 -26.7019 0 58.8486 -26.6787 0 
58.9093 -26.6554 0 58.9699 -26.632 0 59.0304 -26.6087 0 
59.0907 -26.5853 0 59.1509 -26.5619 0 59.2111 -26.5384 0 
59.271 -26.515 0 59.3308 -26.4914 0 59.3906 -26.4679 0 
59.4502 -26.4443 0 59.5097 -26.4207 0 59.5691 -26.397 0 
59.6283 -26.3732 0 59.6874 -26.3494 0 59.7465 -26.3257 0 
59.8054 -26.3019 0 59.8642 -26.278 0 59.9228 -26.2541 0 
59.9814 -26.2302 0 60.0398 -26.2063 0 60.0981 -26.1823 0 
60.1564 -26.1583 0 60.2145 -26.1341 0 60.2725 -26.11 0 
60.3304 -26.0859 0 60.3881 -26.0617 0 60.4458 -26.0375 0 
60.5033 -26.0133 0 60.5607 -25.9891 0 60.618 -25.9648 0 
60.6752 -25.9405 0 60.7324 -25.9161 0 60.7893 -25.8917 0 
60.8463 -25.8672 0 60.903 -25.8427 0 60.9597 -25.8182 0 
61.0162 -25.7937 0 61.0727 -25.7692 0 61.1291 -25.7446 0 
61.1854 -25.72 0 61.2415 -25.6953 0 61.2975 -25.6707 0 
61.3534 -25.646 0 61.4093 -25.6211 0 61.465 -25.5963 0 
61.5206 -25.5715 0 61.5761 -25.5467 0 61.6315 -25.5219 0 
61.6868 -25.497 0 61.7421 -25.472 0 61.7971 -25.4471 0 
61.8521 -25.4221 0 61.9071 -25.3971 0 61.9619 -25.3721 0 
62.0166 -25.3469 0 62.0712 -25.3218 0 62.1257 -25.2967 0 
62.1801 -25.2715 0 62.2344 -25.2463 0 62.2886 -25.2211 0 
62.3428 -25.1959 0 62.3968 -25.1706 0 62.4507 -25.1453 0 
62.5045 -25.12 0 62.5582 -25.0946 0 62.6119 -25.0692 0 
62.6654 -25.0438 0 62.7189 -25.0183 0 62.7721 -24.9929 0 
62.8254 -24.9674 0 62.8786 -24.9419 0 62.9316 -24.9164 0 
62.9845 -24.8908 0 63.0375 -24.8652 0 63.0903 -24.8395 0 
63.1429 -24.8138 0 63.1955 -24.7882 0 63.248 -24.7625 0 
63.3004 -24.7367 0 63.3527 -24.711 0 63.4049 -24.6852 0 
63.457 -24.6594 0 63.5091 -24.6336 0 63.561 -24.6078 0 
63.6128 -24.5819 0 63.6646 -24.5559 0 63.7163 -24.53 0 
63.7679 -24.504 0 63.8193 -24.4781 0 63.8707 -24.4521 0 
63.9221 -24.4261 0 63.9733 -24.4 0 64.0245 -24.374 0 
64.0755 -24.3479 0 64.1264 -24.3218 0 64.1773 -24.2956 0 
64.2281 -24.2694 0 64.2787 -24.2432 0 64.3294 -24.217 0 
64.3799 -24.1908 0 64.4303 -24.1646 0 64.4806 -24.1383 0 
64.5309 -24.112 0 64.581 -24.0857 0 64.6311 -24.0594 0 
64.6812 -24.033 0 64.7311 -24.0066 0 64.7809 -23.9802 0 
64.8306 -23.9538 0 64.8803 -23.9273 0 64.9298 -23.9009 0 
64.9793 -23.8744 0 65.0287 -23.8479 0 65.078 -23.8214 0 
65.1273 -23.7949 0 65.1764 -23.7683 0 65.2255 -23.7416 0 
65.2745 -23.715 0 65.3233 -23.6884 0 65.3721 -23.6618 0 
65.421 -23.6351 0 65.4695 -23.6084 0 65.5181 -23.5817 0 
65.5666 -23.555 0 65.615 -23.5283 0 65.6633 -23.5016 0 
65.7116 -23.4747 0 65.7597 -23.4479 0 65.8078 -23.4211 0 
65.8558 -23.3943 0 65.9037 -23.3674 0 65.9516 -23.3406 0 
65.9993 -23.3137 0 66.047 -23.2868 0 66.0945 -23.2599 0 
66.142 -23.233 0 66.1895 -23.206 0 66.2369 -23.179 0 
66.2841 -23.152 0 66.3313 -23.125 0 66.3784 -23.098 0 
66.4254 -23.0709 0 66.4724 -23.0439 0 66.5193 -23.0168 0 
66.566 -22.9898 0 66.6128 -22.9627 0 66.6594 -22.9356 0 
66.7059 -22.9083 0 66.7525 -22.8812 0 66.7988 -22.854 0 
66.8451 -22.8269 0 66.8914 -22.7997 0 66.9376 -22.7725 0 
66.9836 -22.7452 0 67.0296 -22.718 0 67.0756 -22.6908 0 
67.1215 -22.6635 0 67.1673 -22.6362 0 67.2129 -22.6088 0 
67.2586 -22.5815 0 67.3041 -22.5542 0 67.3495 -22.5269 0 
67.395 -22.4995 0 67.4403 -22.4722 0 67.4855 -22.4448 0 
67.5307 -22.4174 0 67.5758 -22.39 0 67.6208 -22.3626 0 
67.6658 -22.3351 0 67.7106 -22.3076 0 67.7555 -22.2802 0 
67.8002 -22.2527 0 67.8448 -22.2252 0 67.8893 -22.1977 0 
67.9338 -22.1702 0 67.9783 -22.1427 0 68.0226 -22.1152 0 
68.0669 -22.0876 0 68.1111 -22.0601 0 68.1552 -22.0324 0 
68.1993 -22.0048 0 68.2432 -21.9772 0 68.2871 -21.9496 0 
68.3309 -21.922 0 68.3747 -21.8944 0 68.4184 -21.8668 0 
68.462 -21.8391 0 68.5055 -21.8115 0 68.549 -21.7838 0 
68.5923 -21.756 0 68.6357 -21.7283 0 68.6789 -21.7006 0 
[...]
POINT_DATA 5000
VECTORS velocity double
14.6652 -9.25285 0 14.8658 -8.60541 0 14.9734 -8.33402 0 
15.0627 -8.12732 0 15.1413 -7.95526 0 15.2122 -7.80611 0 
15.277 -7.67379 0 15.3367 -7.55454 0 15.392 -7.44598 0 
15.4434 -7.34642 0 15.4912 -7.25457 0 15.5358 -7.16946 0 
15.5774 -7.09033 0 15.6162 -7.01657 0 15.6524 -6.94766 0 
15.6862 -6.88317 0 15.7176 -6.82277 0 15.7469 -6.76608 0 
15.7741 -6.71284 0 15.7992 -6.66285 0 15.8225 -6.61586 0 
15.844 -6.57169 0 15.8638 -6.53016 0 15.8819 -6.49114 0 
15.8984 -6.45446 0 15.9133 -6.42001 0 15.9268 -6.3877 0 
15.9389 -6.35736 0 15.9495 -6.32892 0 15.9589 -6.30227 0 
15.967 -6.27735 0 15.9739 -6.25408 0 15.9796 -6.23235 0 
15.9841 -6.21213 0 15.9876 -6.19333 0 15.99 -6.17589 0 
15.9913 -6.15976 0 15.9916 -6.1449 0 15.991 -6.13123 0 
15.9895 -6.1187 0 15.987 -6.10726 0 15.9837 -6.09689 0 
15.9795 -6.08754 0 15.9746 -6.07916 0 15.9688 -6.07172 0 
15.9622 -6.06517 0 15.955 -6.0595 0 15.947 -6.05467 0 
15.9383 -6.05063 0 15.9289 -6.04736 0 15.9189 -6.04483 0 
15.9082 -6.04301 0 15.8969 -6.04188 0 15.8851 -6.04142 0 
15.8727 -6.04159 0 15.8597 -6.04237 0 15.8461 -6.04375 0 
15.8321 -6.04569 0 15.8176 -6.0482 0 15.8025 -6.05122 0 
15.787 -6.05475 0 15.771 -6.05877 0 15.7546 -6.06326 0 
15.7378 -6.06821 0 15.7205 -6.0736 0 15.7029 -6.07941 0 
15.6848 -6.08562 0 15.6664 -6.09223 0 15.6476 -6.09923 0 
15.6285 -6.10658 0 15.609 -6.11428 0 15.5892 -6.12232 0 
15.569 -6.13068 0 15.5486 -6.13936 0 15.5279 -6.14833 0 
15.5068 -6.15759 0 15.4855 -6.16714 0 15.464 -6.17695 0 
15.4421 -6.18701 0 15.4201 -6.19734 0 15.3977 -6.2079 0 
15.3752 -6.21868 0 15.3524 -6.22968 0 15.3294 -6.2409 0 
15.3062 -6.25231 0 15.2828 -6.26392 0 15.2592 -6.27571 0 
15.2354 -6.28769 0 15.2114 -6.29984 0 15.1873 -6.31215 0 
15.163 -6.32462 0 15.1386 -6.33723 0 15.1139 -6.34999 0 
15.0892 -6.36289 0 15.0643 -6.37591 0 15.0392 -6.38906 0 
15.0141 -6.40233 0 14.9888 -6.41571 0 14.9634 -6.4292 0 
14.9379 -6.4428 0 14.9123 -6.45649 0 14.8865 -6.47026 0 
14.8607 -6.48413 0 14.8348 -6.49808 0 14.8088 -6.5121 0 
14.7827 -6.5262 0 14.7565 -6.54037 0 14.7303 -6.55459 0 
14.704 -6.56888 0 14.6776 -6.58323 0 14.6512 -6.59764 0 
14.6247 -6.61208 0 14.5982 -6.62657 0 14.5715 -6.6411 0 
14.5449 -6.65567 0 14.5182 -6.67028 0 14.4914 -6.68492 0 
14.4647 -6.69958 0 14.4379 -6.71426 0 14.411 -6.72896 0 
14.3842 -6.7437 0 14.3573 -6.75843 0 14.3304 -6.77319 0 
14.3035 -6.78795 0 14.2765 -6.80272 0 14.2496 -6.8175 0 
14.2226 -6.83228 0 14.1956 -6.84705 0 14.1687 -6.86183 0 
14.1417 -6.8766 0 14.1147 -6.89136 0 14.0878 -6.90612 0 
14.0608 -6.92086 0 14.0338 -6.93559 0 14.0069 -6.95031 0 
13.9799 -6.965 0 13.953 -6.97967 0 13.9261 -6.99433 0 
13.8992 -7.00896 0 13.8723 -7.02356 0 13.8455 -7.03814 0 
13.8187 -7.05269 0 13.7918 -7.06722 0 13.7651 -7.08171 0 
13.7383 -7.09617 0 13.7116 -7.11059 0 13.6849 -7.12498 0 
13.6582 -7.13933 0 13.6316 -7.15364 0 13.605 -7.16791 0 
13.5785 -7.18214 0 13.552 -7.19633 0 13.5256 -7.21046 0 
13.4991 -7.22457 0 13.4728 -7.23862 0 13.4464 -7.25262 0 
13.4202 -7.26658 0 13.3939 -7.28048 0 13.3677 -7.29434 0 
13.3416 -7.30814 0 13.3155 -7.3219 0 13.2895 -7.3356 0 
13.2635 -7.34924 0 13.2376 -7.36283 0 13.2117 -7.37636 0 
13.1859 -7.38983 0 13.1601 -7.40325 0 13.1344 -7.41662 0 
13.1088 -7.42991 0 13.0832 -7.44315 0 13.0577 -7.45633 0 
13.0322 -7.46945 0 13.0069 -7.4825 0 12.9816 -7.49548 0 
12.9563 -7.50841 0 12.9311 -7.52128 0 12.906 -7.53408 0 
12.8809 -7.54681 0 12.8559 -7.55947 0 12.831 -7.57207 0 
12.8061 -7.5846 0 12.7814 -7.59707 0 12.7566 -7.60946 0 
12.732 -7.62178 0 12.7075 -7.63404 0 12.6829 -7.64624 0 
12.6585 -7.65834 0 12.6342 -7.67039 0 12.6099 -7.68237 0 
12.5857 -7.69427 0 12.5615 -7.70611 0 12.5375 -7.71786 0 
12.5135 -7.72955 0 12.4896 -7.74116 0 12.4658 -7.7527 0 
12.4421 -7.76417 0 12.4184 -7.77556 0 12.3948 -7.78688 0 
12.3713 -7.79812 0 12.3479 -7.80929 0 12.3245 -7.82038 0 
12.3012 -7.83141 0 12.278 -7.84235 0 12.2549 -7.85322 0 
12.2319 -7.864 0 12.209 -7.87472 0 12.1861 -7.88535 0 
12.1633 -7.89592 0 12.1406 -7.9064 0 12.118 -7.91681 0 
12.0955 -7.92713 0 12.073 -7.93739 0 12.0507 -7.94756 0 
12.0284 -7.95766 0 12.0062 -7.96767 0 11.9841 -7.97761 0 
11.962 -7.98748 0 11.9401 -7.99725 0 11.9182 -8.00696 0 
11.8965 -8.01658 0 11.8747 -8.02614 0 11.8531 -8.0356 0 
11.8316 -8.045 0 11.8102 -8.05431 0 11.7889 -8.06353 0 
11.7676 -8.07268 0 11.7464 -8.08176 0 11.7253 -8.09075 0 
11.7043 -8.09967 0 11.6834 -8.10851 0 11.6625 -8.11727 0 
11.6418 -8.12594 0 11.6211 -8.13455 0 11.6006 -8.14307 0 
11.5801 -8.1515 0 11.5597 -8.15986 0 11.5394 -8.16814 0 
11.5192 -8.17634 0 11.499 -8.18446 0 11.479 -8.1925 0 
11.459 -8.20046 0 11.4391 -8.20835 0 11.4193 -8.21616 0 
11.3997 -8.22388 0 11.38 -8.23153 0 11.3606 -8.23909 0 
11.3411 -8.24657 0 11.3218 -8.25398 0 11.3025 -8.26132 0 
11.2833 -8.26857 0 11.2642 -8.27574 0 11.2452 -8.28284 0 
11.2263 -8.28985 0 11.2075 -8.29679 0 11.1888 -8.30364 0 
11.1701 -8.31042 0 11.1516 -8.31712 0 11.1331 -8.32374 0 
11.1147 -8.33029 0 11.0964 -8.33675 0 11.0782 -8.34314 0 
11.0601 -8.34944 0 11.042 -8.35568 0 11.0241 -8.36184 0 
11.0062 -8.36792 0 10.9884 -8.37391 0 10.9708 -8.37982 0 
10.9532 -8.38567 0 10.9357 -8.39144 0 10.9183 -8.39712 0 
10.9009 -8.40274 0 10.8836 -8.40827 0 10.8665 -8.41373 0 
10.8494 -8.41913 0 10.8324 -8.42443 0 10.8155 -8.42965 0 
10.7987 -8.43481 0 10.782 -8.43988 0 10.7653 -8.44488 0 
10.7487 -8.44981 0 10.7323 -8.45467 0 10.7159 -8.45944 0 
10.6996 -8.46414 0 10.6833 -8.46877 0 10.6672 -8.47331 0 
10.6511 -8.4778 0 10.6352 -8.4822 0 10.6194 -8.48651 0 
10.6036 -8.49076 0 10.5879 -8.49494 0 10.5722 -8.49905 0 
10.5567 -8.50307 0 10.5412 -8.50703 0 10.5258 -8.51092 0 
10.5105 -8.51474 0 10.4954 -8.51847 0 10.4802 -8.52213 0 
10.4652 -8.52571 0 10.4503 -8.52924 0 10.4354 -8.53268 0 
10.4206 -8.53606 0 10.4059 -8.53936 0 10.3913 -8.5426 0 
10.3768 -8.54575 0 10.3623 -8.54884 0 10.3479 -8.55186 0 
10.3336 -8.55481 0 10.3194 -8.55768 0 10.3053 -8.56048 0 
10.2913 -8.56321 0 10.2773 -8.56588 0 10.2635 -8.56847 0 
10.2496 -8.571 0 10.2359 -8.57346 0 10.2223 -8.57584 0 
10.2087 -8.57816 0 10.1953 -8.58041 0 10.1819 -8.58259 0 
10.1686 -8.58468 0 10.1554 -8.58673 0 10.1422 -8.5887 0 
10.1291 -8.59061 0 10.1161 -8.59245 0 10.1032 -8.59422 0 
10.0904 -8.59593 0 10.0776 -8.59756 0 10.0649 -8.59913 0 
10.0523 -8.60064 0 10.0398 -8.60206 0 10.0274 -8.60343 0 
10.015 -8.60474 0 10.0027 -8.60598 0 9.99051 -8.60716 0 
9.9784 -8.60826 0 9.96634 -8.60931 0 9.95434 -8.61029 0 
9.94243 -8.61121 0 9.93061 -8.61206 0 9.91885 -8.61285 0 
9.90722 -8.61356 0 9.89564 -8.61421 0 9.88411 -8.61481 0 
9.87267 -8.61534 0 9.86129 -8.61581 0 9.85 -8.61622 0 
9.83876 -8.61657 0 9.82761 -8.61685 0 9.81655 -8.61707 0 
9.80555 -8.61723 0 9.79468 -8.61731 0 9.78383 -8.61734 0 
9.77302 -8.61732 0 9.76235 -8.61723 0 9.75169 -8.61709 0 
9.74116 -8.61688 0 9.73068 -8.61661 0 9.72026 -8.61629 0 
9.70993 -8.6159 0 9.69965 -8.61546 0 9.68946 -8.61495 0 
9.67938 -8.61437 0 9.66933 -8.61375 0 9.65934 -8.61307 0 
9.64944 -8.61233 0 9.6396 -8.61153 0 9.62981 -8.61068 0 
9.62011 -8.60977 0 9.61049 -8.6088 0 9.60094 -8.60777 0 
9.59143 -8.60669 0 9.58207 -8.60553 0 9.57271 -8.60434 0 
9.56344 -8.60308 0 9.55422 -8.60178 0 9.54509 -8.60041 0 
9.53602 -8.59899 0 9.527 -8.59752 0 9.51807 -8.59599 0 
9.5092 -8.59441 0 9.50037 -8.59278 0 9.49164 -8.59109 0 
9.48304 -8.58932 0 9.47441 -8.58752 0 9.46587 -8.58567 0 
9.45742 -8.58377 0 9.44902 -8.58181 0 9.44068 -8.5798 0 
9.43239 -8.57774 0 9.42418 -8.57562 0 9.41603 -8.57346 0 
9.40797 -8.57124 0 9.40001 -8.56895 0 9.39205 -8.56663 0 
9.38415 -8.56426 0 9.37633 -8.56184 0 9.3686 -8.55936 0 
9.36088 -8.55685 0 9.35326 -8.55427 0 9.34569 -8.55165 0 
9.3382 -8.54898 0 9.33073 -8.54626 0 9.3234 -8.54347 0 
9.31609 -8.54066 0 9.30882 -8.53779 0 9.30163 -8.53488 0 
9.29451 -8.53191 0 9.28743 -8.5289 0 9.28043 -8.52585 0 
9.27347 -8.52274 0 9.26657 -8.51959 0 9.25975 -8.5164 0 
9.25299 -8.51315 0 9.24632 -8.50984 0 9.23966 -8.50651 0 
9.23308 -8.50312 0 9.22655 -8.4997 0 9.22007 -8.49623 0 
9.21364 -8.49271 0 9.2073 -8.48915 0 9.20097 -8.48554 0 
9.19473 -8.48189 0 9.18857 -8.4782 0 9.18247 -8.47444 0 
9.17642 -8.47066 0 9.17041 -8.46683 0 9.16444 -8.46297 0 
9.15853 -8.45906 0 9.15271 -8.4551 0 9.14692 -8.45111 0 
9.14116 -8.44707 0 9.13551 -8.44299 0 9.12988 -8.43887 0 
9.1243 -8.43471 0 9.11884 -8.43049 0 9.11339 -8.42625 0 
9.10799 -8.42196 0 9.10263 -8.41764 0 9.09735 -8.41327 0 
9.09209 -8.40887 0 9.08691 -8.40443 0 9.08177 -8.39994 0 
9.07669 -8.39542 0 9.07166 -8.39086 0 9.06675 -8.38624 0 
9.06181 -8.3816 0 9.05695 -8.37693 0 9.05213 -8.37221 0 
9.04733 -8.36746 0 9.04263 -8.36268 0 9.03796 -8.35785 0 
9.03334 -8.35299 0 9.02878 -8.34809 0 9.02425 -8.34315 0 
9.01984 -8.33816 0 9.01543 -8.33315 0 9.01106 -8.3281 0 
9.00674 -8.32302 0 9.00247 -8.31791 0 8.99824 -8.31276 0 
8.99408 -8.30757 0 8.98995 -8.30236 0 8.98588 -8.2971 0 
8.98187 -8.29181 0 8.97787 -8.28649 0 8.97399 -8.28111 0 
8.97011 -8.27573 0 8.96628 -8.2703 0 8.96248 -8.26485 0 
8.95876 -8.25936 0 8.95505 -8.25384 0 8.95139 -8.24829 0 
8.9478 -8.2427 0 8.94423 -8.23709 0 8.94073 -8.23144 0 
8.93733 -8.22574 0 8.93388 -8.22002 0 8.93051 -8.21428 0 
8.92718 -8.20851 0 8.9239 -8.20271 0 8.92065 -8.19687 0 
8.91746 -8.19101 0 8.9143 -8.18511 0 8.91118 -8.17919 0 
8.9081 -8.17324 0 8.90507 -8.16726 0 8.90217 -8.16123 0 
8.89922 -8.15519 0 8.89632 -8.14912 0 8.89348 -8.14303 0 
8.89066 -8.1369 0 8.88788 -8.13075 0 8.88517 -8.12457 0 
8.88247 -8.11836 0 8.87983 -8.11213 0 8.87722 -8.10587 0 
8.87469 -8.09956 0 8.87218 -8.09324 0 8.86967 -8.0869 0 
8.86725 -8.08054 0 8.86483 -8.07414 0 8.86249 -8.06773 0 
8.86017 -8.06128 0 8.85787 -8.05481 0 8.85561 -8.04832 0 
8.85342 -8.0418 0 8.85124 -8.03526 0 8.84918 -8.02867 0 
8.84707 -8.02207 0 8.84503 -8.01546 0 8.843 -8.00882 0 
8.84104 -8.00215 0 8.83909 -7.99546 0 8.83718 -7.98875 0 
8.83533 -7.98202 0 8.8335 -7.97526 0 8.83169 -7.96849 0 
8.83001 -7.96166 0 8.82828 -7.95484 0 8.8266 -7.94799 0 
8.82495 -7.94113 0 8.82333 -7.93424 0 8.82175 -7.92733 0 
8.82021 -7.92039 0 8.81871 -7.91344 0 8.81723 -7.90647 0 
8.8158 -7.89948 0 8.81446 -7.89244 0 8.8131 -7.88541 0 
8.81174 -7.87835 0 8.81046 -7.87128 0 8.8092 -7.86419 0 
8.80795 -7.85707 0 8.80677 -7.84994 0 8.80559 -7.84279 0 
8.80445 -7.83562 0 8.80337 -7.82843 0 8.8023 -7.82123 0 
8.80131 -7.81398 0 8.80031 -7.80673 0 8.79933 -7.79947 0 
8.79841 -7.79219 0 8.79747 -7.78489 0 8.7966 -7.77758 0 
8.79577 -7.77025 0 8.79494 -7.7629 0 8.79417 -7.75554 0 
8.79341 -7.74816 0 8.79273 -7.74073 0 8.79207 -7.73332 0 
8.79141 -7.72589 0 8.79078 -7.71844 0 8.79018 -7.71098 0 
8.78958 -7.7035 0 8.78905 -7.69601 0 8.78855 -7.6885 0 
8.78806 -7.68098 0 8.78759 -7.67344 0 8.78724 -7.66587 0 
8.78684 -7.6583 0 8.78646 -7.65072 0 8.78613 -7.64312 0 
8.78583 -7.63552 0 8.78552 -7.62789 0 8.78528 -7.62026 0 
8.78504 -7.61261 0 8.78485 -7.60495 0 8.78469 -7.59727 0 
8.78453 -7.58958 0 8.78446 -7.58185 0 8.78438 -7.57414 0 
8.78429 -7.56641 0 8.78426 -7.55867 0 8.78424 -7.55092 0 
8.78425 -7.54316 0 8.78431 -7.53538 0 8.78437 -7.5276 0 
8.78444 -7.5198 0 8.78456 -7.51199 0 8.78477 -7.50414 0 
8.78492 -7.49631 0 8.78511 -7.48847 0 8.78531 -7.48061 0 
8.78556 -7.47275 0 8.78583 -7.46488 0 8.78613 -7.457 0 
8.78643 -7.4491 0 8.78679 -7.4412 0 8.78714 -7.43329 0 
8.78753 -7.42536 0 8.78799 -7.41741 0 8.78843 -7.40947 0 
8.78887 -7.40151 0 8.78934 -7.39355 0 8.78986 -7.38559 0 
8.79038 -7.37761 0 8.79094 -7.36963 0 8.79148 -7.36163 0 
8.79209 -7.35363 0 8.79269 -7.34562 0 8.79338 -7.33757 0 
8.79404 -7.32955 0 8.79472 -7.32152 0 8.79544 -7.31348 0 
8.79615 -7.30543 0 8.79692 -7.29738 0 8.79767 -7.28931 0 
8.79847 -7.28125 0 8.79929 -7.27317 0 8.80009 -7.26508 0 
8.80094 -7.25699 0 8.80188 -7.24888 0 8.80275 -7.24077 0 
8.80367 -7.23267 0 8.80461 -7.22456 0 8.80555 -7.21643 0 
8.80652 -7.20831 0 8.80752 -7.20018 0 8.80853 -7.19204 0 
8.80956 -7.1839 0 8.81061 -7.17576 0 8.81173 -7.16758 0 
8.81281 -7.15942 0 8.81393 -7.15126 0 8.81507 -7.1431 0 
8.81621 -7.13493 0 8.81737 -7.12675 0 8.81854 -7.11858 0 
8.81976 -7.11039 0 8.82096 -7.1022 0 8.82222 -7.09402 0 
8.82348 -7.08583 0 8.82481 -7.07761 0 8.82607 -7.0694 0 
8.8274 -7.0612 0 8.82873 -7.05299 0 8.83007 -7.04478 0 
8.83144 -7.03657 0 8.8328 -7.02835 0 8.83421 -7.02013 0 
8.83563 -7.01191 0 8.83704 -7.00368 0 8.83854 -6.99543 0 
8.83999 -6.9872 0 8.84149 -6.97897 0 8.84299 -6.97074 0 
8.84448 -6.9625 0 8.84603 -6.95427 0 8.84757 -6.94603 0 
8.84913 -6.93779 0 8.85071 -6.92955 0 8.85229 -6.9213 0 
8.85394 -6.91303 0 8.85556 -6.90479 0 8.85721 -6.89654 0 
8.85887 -6.8883 0 8.86053 -6.88005 0 8.86222 -6.8718 0 
8.86392 -6.86355 0 8.86562 -6.8553 0 8.86737 -6.84705 0 
8.86911 -6.8388 0 8.87085 -6.83054 0 8.87268 -6.82227 0 
8.87446 -6.81402 0 8.87626 -6.80577 0 8.87809 -6.79752 0 
8.87993 -6.78927 0 8.88176 -6.78102 0 8.88362 -6.77277 0 
8.8855 -6.76452 0 8.88736 -6.75627 0 8.88926 -6.74802 0 
8.89122 -6.73975 0 8.89316 -6.73151 0 8.89509 -6.72327 0 
8.89703 -6.71502 0 8.899 -6.70678 0 8.90099 -6.69855 0 
8.90297 -6.6903 0 8.90497 -6.68207 0 8.90699 -6.67383 0 
8.909 -6.6656 0 8.91107 -6.65737 0 8.91318 -6.64912 0 
8.91522 -6.64088 0 8.91732 -6.63266 0 8.9194 -6.62444 0 
8.92152 -6.61622 0 8.92361 -6.608 0 8.92576 -6.59979 0 
8.92789 -6.59157 0 8.93003 -6.58336 0 8.93221 -6.57515 0 
8.93442 -6.56692 0 8.93661 -6.55872 0 8.93879 -6.55052 0 
8.94102 -6.54233 0 8.94324 -6.53414 0 8.94546 -6.52594 0 
8.94771 -6.51776 0 8.94996 -6.50958 0 8.95224 -6.5014 0 
8.95449 -6.49322 0 8.95685 -6.48503 0 8.95915 -6.47686 0 
8.96144 -6.46869 0 8.96377 -6.46053 0 8.96611 -6.45238 0 
8.96842 -6.44422 0 8.97079 -6.43607 0 8.97314 -6.42793 0 
8.97551 -6.41979 0 8.9779 -6.41166 0 8.9803 -6.40352 0 
8.98274 -6.39538 0 8.98514 -6.38725 0 8.98757 -6.37914 0 
8.99 -6.37102 0 8.99243 -6.36291 0 8.99489 -6.35481 0 
8.99735 -6.34671 0 8.99983 -6.33862 0 9.00229 -6.33053 0 
9.00477 -6.32244 0 9.00732 -6.31434 0 9.00985 -6.30628 0 
9.01235 -6.2982 0 9.01488 -6.29014 0 9.01743 -6.28209 0 
9.01997 -6.27404 0 9.02253 -6.26599 0 9.02506 -6.25795 0 
9.02766 -6.24992 0 9.03023 -6.24189 0 9.0328 -6.23386 0 
9.03546 -6.22583 0 9.03808 -6.21782 0 9.04069 -6.20982 0 
9.04331 -6.20182 0 9.04593 -6.19382 0 9.04858 -6.18584 0 
9.05122 -6.17786 0 9.05387 -6.16988 0 9.05655 -6.16192 0 
9.05921 -6.15396 0 9.06197 -6.14599 0 9.06464 -6.13803 0 
9.06735 -6.1301 0 9.07006 -6.12217 0 9.07278 -6.11424 0 
9.07549 -6.10632 0 9.07821 -6.0984 0 9.08095 -6.0905 0 
9.08368 -6.08259 0 9.08644 -6.0747 0 9.08925 -6.06679 0 
9.09204 -6.05892 0 9.09481 -6.05105 0 9.0976 -6.04319 0 
9.10038 -6.03533 0 9.10318 -6.02748 0 9.106 -6.01964 0 
9.1088 -6.0118 0 9.11162 -6.00397 0 9.11445 -5.99615 0 
9.11728 -5.98834 0 9.12017 -5.98051 0 9.12302 -5.97272 0 
9.12587 -5.96493 0 9.12875 -5.95715 0 9.13162 -5.94938 0 
9.13449 -5.94161 0 9.13738 -5.93385 0 9.14026 -5.9261 0 
9.14315 -5.91836 0 9.14606 -5.91062 0 9.14903 -5.90288 0 
9.15195 -5.89516 0 9.15488 -5.88745 0 9.1578 -5.87975 0 
9.16073 -5.87206 0 9.16368 -5.86437 0 9.16662 -5.85669 0 
9.16958 -5.84903 0 9.17256 -5.84137 0 9.17552 -5.83372 0 
9.1785 -5.82607 0 9.18154 -5.81842 0 9.18452 -5.81079 0 
9.18753 -5.80318 0 9.19052 -5.79557 0 9.19352 -5.78797 0 
9.19654 -5.78038 0 9.19958 -5.7728 0 9.20261 -5.76523 0 
9.20561 -5.75766 0 9.20868 -5.75011 0 9.21177 -5.74254 0 
9.21481 -5.735 0 9.21786 -5.72747 0 9.22092 -5.71995 0 
9.22401 -5.71245 0 9.22708 -5.70494 0 9.23014 -5.69744 0 
9.23325 -5.68997 0 9.23634 -5.6825 0 9.23943 -5.67502 0 
9.2426 -5.66755 0 9.24568 -5.6601 0 9.24881 -5.65267 0 
9.25193 -5.64524 0 9.25506 -5.63783 0 9.25818 -5.63041 0 
9.26132 -5.62301 0 9.26447 -5.61563 0 9.26762 -5.60824 0 
9.27078 -5.60087 0 9.27392 -5.59351 0 9.27713 -5.58614 0 
9.28031 -5.5788 0 9.28348 -5.57146 0 9.28665 -5.56414 0 
9.28986 -5.55683 0 9.29305 -5.54952 0 9.29626 -5.54223 0 
9.29943 -5.53494 0 9.30265 -5.52767 0 9.30587 -5.52041 0 
9.30913 -5.51313 0 9.31235 -5.50589 0 9.3156 -5.49866 0 
9.31883 -5.49143 0 9.32204 -5.48421 0 9.32532 -5.47702 0 
9.32857 -5.46982 0 9.33181 -5.46263 0 9.33507 -5.45545 0 
9.33834 -5.44828 0 9.34164 -5.44113 0 9.34492 -5.43399 0 
9.34818 -5.42684 0 9.35147 -5.41972 0 9.35477 -5.4126 0 
9.35809 -5.4055 0 9.36139 -5.39841 0 9.36468 -5.39131 0 
9.36799 -5.38424 0 9.37131 -5.37718 0 9.37465 -5.37013 0 
9.37798 -5.36308 0 9.38128 -5.35604 0 9.38465 -5.34903 0 
9.388 -5.34201 0 9.39133 -5.33501 0 9.39469 -5.32801 0 
9.39806 -5.32104 0 9.40142 -5.31406 0 9.40477 -5.3071 0 
9.40813 -5.30015 0 9.41152 -5.29321 0 9.41491 -5.28628 0 
9.41828 -5.27936 0 9.42168 -5.27245 0 9.42509 -5.26556 0 
9.4285 -5.25867 0 9.43187 -5.25179 0 9.43528 -5.24492 0 
9.4387 -5.23807 0 9.44214 -5.23123 0 9.44556 -5.22439 0 
9.44897 -5.21756 0 9.45243 -5.21076 0 9.45584 -5.20395 0 
9.45931 -5.19717 0 9.46275 -5.19038 0 9.46619 -5.18361 0 
9.46963 -5.17685 0 9.4731 -5.1701 0 9.47655 -5.16336 0 
9.48003 -5.15663 0 9.48352 -5.14992 0 9.487 -5.14322 0 
9.49049 -5.13653 0 9.49397 -5.12984 0 9.49747 -5.12317 0 
9.50094 -5.1165 0 9.50445 -5.10985 0 9.50796 -5.10321 0 
9.51148 -5.09658 0 9.515 -5.08996 0 9.51851 -5.08335 0 
9.52204 -5.07676 0 9.52557 -5.07017 0 9.52911 -5.0636 0 
9.53263 -5.05703 0 9.53619 -5.05048 0 9.53974 -5.04394 0 
9.54327 -5.03741 0 9.54683 -5.03088 0 9.5504 -5.02438 0 
9.55396 -5.01788 0 9.55755 -5.0114 0 9.5611 -5.00491 0 
9.56468 -4.99845 0 9.56825 -4.99199 0 9.57184 -4.98555 0 
9.57544 -4.97912 0 9.57903 -4.97269 0 9.58263 -4.96628 0 
9.58623 -4.95988 0 9.58984 -4.95349 0 9.59347 -4.94712 0 
9.59709 -4.94075 0 9.60072 -4.9344 0 9.60434 -4.92805 0 
9.60798 -4.92172 0 9.6116 -4.91539 0 9.61524 -4.90908 0 
9.6189 -4.90279 0 9.62255 -4.8965 0 9.62618 -4.89021 0 
9.62986 -4.88395 0 9.6335 -4.87769 0 9.63719 -4.87145 0 
9.64086 -4.86522 0 9.64452 -4.85899 0 9.6482 -4.85278 0 
9.6519 -4.84658 0 9.65558 -4.84039 0 9.65928 -4.83421 0 
9.663 -4.82805 0 9.66667 -4.82189 0 9.6704 -4.81575 0 
9.67411 -4.80961 0 9.67784 -4.80349 0 9.68155 -4.79738 0 
9.68528 -4.79128 0 9.68901 -4.78519 0 9.69275 -4.77911 0 
9.69648 -4.77304 0 9.70021 -4.76698 0 9.70398 -4.76094 0 
9.70773 -4.75491 0 9.7115 -4.74889 0 9.71525 -4.74287 0 
9.71902 -4.73687 0 9.72278 -4.73088 0 9.72656 -4.7249 0 
9.73035 -4.71894 0 9.73414 -4.71299 0 9.73794 -4.70704 0 
9.74173 -4.70111 0 9.74553 -4.69518 0 9.74933 -4.68927 0 
9.75314 -4.68337 0 9.75694 -4.67748 0 9.76076 -4.6716 0 
9.7646 -4.66574 0 9.76842 -4.65988 0 9.77227 -4.65404 0 
9.7761 -4.6482 0 9.77994 -4.64238 0 9.78378 -4.63657 0 
9.78764 -4.63076 0 9.79148 -4.62497 0 9.79534 -4.61919 0 
9.79921 -4.61343 0 9.80308 -4.60767 0 9.80697 -4.60193 0 
9.81084 -4.59619 0 9.81473 -4.59047 0 9.81861 -4.58476 0 
9.8225 -4.57906 0 9.82639 -4.57336 0 9.83029 -4.56768 0 
9.83421 -4.56202 0 9.83812 -4.55636 0 9.84205 -4.55072 0 
9.84597 -4.54508 0 9.84991 -4.53946 0 9.85383 -4.53385 0 
9.85777 -4.52825 0 9.8617 -4.52265 0 9.86564 -4.51707 0 
9.86962 -4.51151 0 9.87357 -4.50595 0 9.87752 -4.5004 0 
9.88148 -4.49486 0 9.88546 -4.48934 0 9.88942 -4.48382 0 
9.89341 -4.47832 0 9.89738 -4.47282 0 9.90139 -4.46735 0 
9.9054 -4.46188 0 9.9094 -4.45642 0 9.91339 -4.45097 0 
9.9174 -4.44553 0 9.92142 -4.44011 0 9.92544 -4.43469 0 
9.92948 -4.42929 0 9.9335 -4.42389 0 9.93755 -4.41852 0 
9.94157 -4.41314 0 9.94563 -4.40778 0 9.94966 -4.40242 0 
9.95372 -4.39709 0 9.9578 -4.39176 0 9.96187 -4.38645 0 
9.96596 -4.38114 0 9.97003 -4.37585 0 9.97412 -4.37056 0 
9.9782 -4.36529 0 9.9823 -4.36003 0 9.98639 -4.35477 0 
9.9905 -4.34953 0 9.99459 -4.3443 0 9.99872 -4.33908 0 
10.0028 -4.33387 0 10.0069 -4.32867 0 10.0111 -4.32348 0 
10.0152 -4.3183 0 10.0194 -4.31314 0 10.0235 -4.30798 0 
10.0277 -4.30284 0 10.0318 -4.29771 0 10.036 -4.29259 0 
10.0401 -4.28747 0 10.0443 -4.28237 0 10.0485 -4.27728 0 
10.0527 -4.2722 0 10.0569 -4.26713 0 10.0611 -4.26207 0 
10.0653 -4.25702 0 10.0695 -4.25198 0 10.0737 -4.24696 0 
10.0779 -4.24194 0 10.0821 -4.23694 0 10.0864 -4.23194 0 
10.0906 -4.22696 0 10.0948 -4.22198 0 10.0991 -4.21702 0 
10.1033 -4.21206 0 10.1076 -4.20712 0 10.1119 -4.20219 0 