# vtk DataFile Version 3.0
vtk output
ASCII
DATASET POLYDATA
POINTS 5000 float
6.24809 -33.4919 0 9.64206 -33.2255 0 11.0593 -33.1038 0 
12.1494 -33.007 0 13.0695 -32.9235 0 13.8803 -32.8487 0 
14.6132 -32.7802 0 15.2867 -32.7168 0 15.9131 -32.6573 0 
16.5007 -32.6013 0 17.0558 -32.5481 0 17.583 -32.4974 0 
18.0859 -32.449 0 18.5674 -32.4025 0 19.0298 -32.3578 0 
19.4752 -32.3148 0 19.905 -32.2731 0 20.3207 -32.2329 0 
20.7236 -32.194 0 21.1145 -32.1563 0 21.4944 -32.1196 0 
21.8641 -32.084 0 22.2242 -32.0493 0 22.5754 -32.0155 0 
22.9182 -31.9826 0 23.2532 -31.9505 0 23.5806 -31.919 0 
23.9011 -31.8884 0 24.2149 -31.8584 0 24.5224 -31.8291 0 
24.8239 -31.8004 0 25.1196 -31.7723 0 25.4099 -31.7447 0 
25.6949 -31.7177 0 25.9749 -31.6912 0 26.2502 -31.6652 0 
26.5208 -31.6396 0 26.787 -31.6144 0 27.049 -31.5898 0 
27.3069 -31.5655 0 27.5609 -31.5416 0 27.811 -31.5181 0 
28.0575 -31.4949 0 28.3004 -31.4722 0 28.54 -31.4497 0 
28.7762 -31.4275 0 29.0092 -31.4057 0 29.2392 -31.3841 0 
29.466 -31.3628 0 29.69 -31.3418 0 29.9112 -31.3211 0 
30.1296 -31.3006 0 30.3454 -31.2804 0 30.5585 -31.2604 0 
30.7691 -31.2406 0 30.9772 -31.2211 0 31.183 -31.2017 0 
31.3864 -31.1825 0 31.5876 -31.1635 0 31.7866 -31.1447 0 
31.9834 -31.1261 0 32.1781 -31.1077 0 32.3708 -31.0894 0 
32.5614 -31.0713 0 32.7501 -31.0533 0 32.9369 -31.0355 0 
33.1219 -31.0179 0 33.3049 -31.0003 0 33.4862 -30.9828 0 
33.6658 -30.9655 0 33.8437 -30.9483 0 34.0198 -30.9313 0 
34.1944 -30.9143 0 34.3673 -30.8975 0 34.5387 -30.8807 0 
34.7086 -30.8641 0 34.877 -30.8475 0 35.0438 -30.8311 0 
35.2092 -30.8147 0 35.3732 -30.7983 0 35.5359 -30.7821 0 
35.6972 -30.7659 0 35.8571 -30.7498 0 36.0157 -30.7338 0 
36.173 -30.7178 0 36.3291 -30.7019 0 36.4839 -30.6861 0 
36.6375 -30.6703 0 36.79 -30.6546 0 36.9412 -30.6388 0 
37.0913 -30.6231 0 37.2402 -30.6075 0 37.3881 -30.592 0 
37.5348 -30.5765 0 37.6804 -30.561 0 37.8251 -30.5455 0 
37.9687 -30.5301 0 38.1112 -30.5147 0 38.2527 -30.4993 0 
38.3933 -30.4839 0 38.5329 -30.4685 0 38.6714 -30.4532 0 
38.8091 -30.4379 0 38.9459 -30.4227 0 39.0816 -30.4074 0 
39.2166 -30.3922 0 39.3506 -30.3769 0 39.4837 -30.3617 0 
39.616 -30.3465 0 39.7475 -30.3313 0 39.8781 -30.316 0 
40.0079 -30.3008 0 40.1368 -30.2856 0 40.265 -30.2704 0 
40.3924 -30.2552 0 40.5191 -30.2399 0 40.645 -30.2247 0 
40.7701 -30.2095 0 40.8944 -30.1943 0 41.018 -30.1791 0 
41.1409 -30.1637 0 41.2631 -30.1485 0 41.3846 -30.1332 0 
41.5053 -30.1179 0 41.6254 -30.1026 0 41.7449 -30.0873 0 
41.8637 -30.072 0 41.9817 -30.0567 0 42.0991 -30.0413 0 
42.216 -30.026 0 42.3321 -30.0106 0 42.4477 -29.995 0 
42.5627 -29.9796 0 42.677 -29.9642 0 42.7907 -29.9487 0 
42.9039 -29.9332 0 43.0164 -29.9176 0 43.1284 -29.9021 0 
43.2397 -29.8865 0 43.3506 -29.8709 0 43.4608 -29.8553 0 
43.5705 -29.8395 0 43.6798 -29.8238 0 43.7884 -29.8081 0 
43.8965 -29.7924 0 44.0041 -29.7766 0 44.1112 -29.7608 0 
44.2177 -29.7449 0 44.3238 -29.7291 0 44.4293 -29.7132 0 
44.5343 -29.6972 0 44.6389 -29.6812 0 44.7429 -29.6651 0 
44.8466 -29.6491 0 44.9497 -29.633 0 45.0524 -29.6169 0 
45.1545 -29.6008 0 45.2563 -29.5846 0 45.3575 -29.5684 0 
45.4584 -29.5521 0 45.5588 -29.5358 0 45.6588 -29.5195 0 
45.7583 -29.503 0 45.8573 -29.4866 0 45.956 -29.4701 0 
46.0542 -29.4536 0 46.1521 -29.4371 0 46.2495 -29.4205 0 
46.3465 -29.4039 0 46.4432 -29.3873 0 46.5393 -29.3706 0 
46.6352 -29.3539 0 46.7306 -29.337 0 46.8256 -29.3202 0 
46.9203 -29.3033 0 47.0146 -29.2864 0 47.1085 -29.2695 0 
47.2021 -29.2525 0 47.2952 -29.2355 0 47.388 -29.2184 0 
47.4804 -29.2013 0 47.5725 -29.1841 0 47.6642 -29.1669 0 
47.7556 -29.1496 0 47.8467 -29.1323 0 47.9374 -29.1149 0 
48.0277 -29.0976 0 48.1177 -29.0801 0 48.2074 -29.0627 0 
48.2968 -29.0452 0 48.3858 -29.0276 0 48.4745 -29.01 0 
48.5628 -28.9924 0 48.6509 -28.9746 0 48.7387 -28.9568 0 
48.8261 -28.9391 0 48.9133 -28.9212 0 49.0001 -28.9034 0 
49.0866 -28.8854 0 49.1728 -28.8675 0 49.2587 -28.8495 0 
49.3443 -28.8314 0 49.4296 -28.8133 0 49.5147 -28.7952 0 
49.5994 -28.7769 0 49.6839 -28.7586 0 49.768 -28.7404 0 
49.8519 -28.722 0 49.9355 -28.7037 0 50.0189 -28.6852 0 
50.1019 -28.6668 0 50.1847 -28.6483 0 50.2672 -28.6297 0 
50.3495 -28.6111 0 50.4315 -28.5923 0 50.5132 -28.5736 0 
50.5947 -28.5549 0 50.6758 -28.5361 0 50.7568 -28.5173 0 
50.8375 -28.4984 0 50.918 -28.4795 0 50.9981 -28.4605 0 
51.0781 -28.4415 0 51.1578 -28.4224 0 51.2372 -28.4032 0 
51.3164 -28.384 0 51.3954 -28.3648 0 51.4742 -28.3456 0 
51.5526 -28.3263 0 51.6309 -28.3069 0 51.7089 -28.2876 0 
51.7867 -28.2681 0 51.8643 -28.2487 0 51.9416 -28.2291 0 
52.0187 -28.2096 0 52.0956 -28.1898 0 52.1723 -28.1702 0 
52.2487 -28.1505 0 52.325 -28.1307 0 52.4009 -28.1109 0 
52.4767 -28.0911 0 52.5523 -28.0712 0 52.6277 -28.0513 0 
52.7027 -28.0313 0 52.7778 -28.0113 0 52.8524 -27.9911 0 
52.9269 -27.971 0 53.0013 -27.9508 0 53.0754 -27.9306 0 
53.1493 -27.9104 0 53.223 -27.8901 0 53.2966 -27.8698 0 
53.3698 -27.8494 0 53.4429 -27.829 0 53.5158 -27.8085 0 
53.5885 -27.788 0 53.6611 -27.7673 0 53.7334 -27.7468 0 
53.8056 -27.7261 0 53.8775 -27.7054 0 53.9493 -27.6847 0 
54.0208 -27.6639 0 54.0922 -27.6431 0 54.1634 -27.6223 0 
54.2345 -27.6014 0 54.3053 -27.5804 0 54.376 -27.5593 0 
54.4465 -27.5383 0 54.5168 -27.5172 0 54.5868 -27.4961 0 
54.6568 -27.475 0 54.7266 -27.4538 0 54.7962 -27.4325 0 
54.8657 -27.4113 0 54.9349 -27.3899 0 55.0039 -27.3686 0 
55.0729 -27.3472 0 55.1416 -27.3256 0 55.2102 -27.3041 0 
55.2786 -27.2826 0 55.3469 -27.261 0 55.4149 -27.2394 0 
55.4828 -27.2178 0 55.5506 -27.1961 0 55.6182 -27.1743 0 
55.6856 -27.1526 0 55.7529 -27.1308 0 55.82 -27.1088 0 
55.8869 -27.0869 0 55.9537 -27.065 0 56.0204 -27.043 0 
56.0868 -27.021 0 56.1532 -26.9989 0 56.2194 -26.9769 0 
56.2854 -26.9547 0 56.3512 -26.9326 0 56.4169 -26.9103 0 
56.4825 -26.888 0 56.548 -26.8657 0 56.6132 -26.8434 0 
56.6783 -26.821 0 56.7433 -26.7986 0 56.8081 -26.7762 0 
56.8728 -26.7537 0 56.9373 -26.7312 0 57.0017 -26.7086 0 
57.066 -26.6861 0 57.13 -26.6634 0 57.194 -26.6407 0 
57.2579 -26.618 0 57.3215 -26.5952 0 57.3851 -26.5724 0 
57.4485 -26.5496 0 57.5118 -26.5268 0 57.5749 -26.5039 0 
57.6379 -26.481 0 57.7007 -26.458 0 57.7634 -26.435 0 
57.826 -26.4119 0 57.8885 -26.3888 0 57.9508 -26.3657 0 
58.013 -26.3426 0 58.075 -26.3194 0 58.1369 -26.2962 0 
58.1987 -26.273 0 58.2604 -26.2497 0 58.3219 -26.2264 0 
58.3833 -26.2031 0 58.4446 -26.1796 0 58.5057 -26.1562 0 
58.5668 -26.1327 0 58.6277 -26.1093 0 58.6885 -26.0858 0 
58.749 -26.0622 0 58.8095 -26.0386 0 58.87 -26.015 0 
58.9302 -25.9914 0 58.9904 -25.9677 0 59.0504 -25.944 0 
59.1103 -25.9201 0 59.1701 -25.8964 0 59.2297 -25.8726 0 
59.2892 -25.8487 0 59.3487 -25.8249 0 59.4079 -25.8009 0 
59.4671 -25.777 0 59.5262 -25.7531 0 59.5851 -25.7291 0 
59.6439 -25.705 0 59.7026 -25.6809 0 59.7612 -25.6568 0 
59.8198 -25.6326 0 59.878 -25.6085 0 59.9363 -25.5843 0 
59.9944 -25.5601 0 60.0524 -25.5359 0 60.1103 -25.5116 0 
60.1681 -25.4873 0 60.2258 -25.4629 0 60.2833 -25.4386 0 
60.3408 -25.4141 0 60.3981 -25.3897 0 60.4554 -25.3652 0 
60.5124 -25.3407 0 60.5695 -25.3162 0 60.6264 -25.2917 0 
60.6832 -25.2671 0 60.7398 -25.2425 0 60.7964 -25.2179 0 
60.8529 -25.1933 0 60.9092 -25.1685 0 60.9655 -25.1438 0 
61.0216 -25.119 0 61.0776 -25.0943 0 61.1335 -25.0695 0 
61.1893 -25.0447 0 61.2451 -25.0198 0 61.3006 -24.995 0 
61.3562 -24.9701 0 61.4116 -24.9451 0 61.4669 -24.9202 0 
61.522 -24.8951 0 61.5772 -24.8701 0 61.6322 -24.8451 0 
61.687 -24.82 0 61.7418 -24.795 0 61.7964 -24.7698 0 
61.8511 -24.7447 0 61.9055 -24.7196 0 61.9599 -24.6944 0 
62.0141 -24.6692 0 62.0683 -24.6438 0 62.1224 -24.6186 0 
62.1764 -24.5933 0 62.2303 -24.568 0 62.284 -24.5427 0 
62.3377 -24.5173 0 62.3913 -24.4919 0 62.4448 -24.4665 0 
62.4981 -24.4411 0 62.5515 -24.4157 0 62.6047 -24.3901 0 
62.6577 -24.3646 0 62.7108 -24.3391 0 62.7637 -24.3135 0 
62.8164 -24.288 0 62.8691 -24.2624 0 62.9217 -24.2368 0 
62.9743 -24.2111 0 63.0267 -24.1855 0 63.079 -24.1598 0 
63.1312 -24.1341 0 63.1834 -24.1083 0 63.2355 -24.0825 0 
63.2874 -24.0568 0 63.3392 -24.031 0 63.391 -24.0052 0 
63.4427 -23.9794 0 63.4942 -23.9535 0 63.5458 -23.9276 0 
63.5972 -23.9018 0 63.6484 -23.8758 0 63.6997 -23.8498 0 
63.7508 -23.8239 0 63.8018 -23.7979 0 63.8528 -23.7719 0 
63.9037 -23.7459 0 63.9544 -23.7198 0 64.005 -23.6938 0 
64.0557 -23.6677 0 64.1061 -23.6416 0 64.1565 -23.6155 0 
64.2069 -23.5894 0 64.2571 -23.5631 0 64.3072 -23.537 0 
64.3573 -23.5108 0 64.4073 -23.4846 0 64.4571 -23.4583 0 
64.5069 -23.4321 0 64.5566 -23.4058 0 64.6062 -23.3796 0 
64.6557 -23.3533 0 64.7052 -23.3269 0 64.7545 -23.3005 0 
64.8038 -23.2742 0 64.853 -23.2478 0 64.902 -23.2214 0 
64.9511 -23.195 0 65 -23.1686 0 65.0488 -23.1421 0 
65.0976 -23.1157 0 65.1462 -23.0892 0 65.1948 -23.0627 0 
65.2433 -23.0361 0 65.2917 -23.0096 0 65.3401 -22.983 0 
65.3883 -22.9565 0 65.4365 -22.9299 0 65.4846 -22.9033 0 
65.5325 -22.8767 0 65.5805 -22.8501 0 65.6283 -22.8235 0 
65.676 -22.7968 0 65.7237 -22.7702 0 65.7713 -22.7434 0 
65.8188 -22.7167 0 65.8662 -22.69 0 65.9136 -22.6633 0 
65.9608 -22.6365 0 66.008 -22.6098 0 66.0551 -22.583 0 
66.102 -22.5562 0 66.149 -22.5294 0 66.1958 -22.5026 0 
66.2426 -22.4757 0 66.2893 -22.4488 0 66.3359 -22.422 0 
66.3824 -22.3951 0 66.4288 -22.3682 0 66.4752 -22.3413 0 
66.5215 -22.3144 0 66.5677 -22.2875 0 66.6138 -22.2606 0 
66.6599 -22.2336 0 66.7059 -22.2067 0 66.7517 -22.1796 0 
66.7975 -22.1526 0 66.8433 -22.1256 0 66.8889 -22.0986 0 
66.9345 -22.0715 0 66.98 -22.0445 0 67.0253 -22.0175 0 
67.0707 -21.9904 0 67.1159 -21.9633 0 67.1611 -21.9362 0 
67.2063 -21.909 0 67.2513 -21.8819 0 67.2963 -21.8548 0 
67.3411 -21.8277 0 67.3859 -21.8005 0 67.4306 -21.7734 0 
67.4752 -21.7462 0 67.5198 -21.719 0 67.5643 -21.6918 0 
67.6087 -21.6647 0 67.653 -21.6374 0 67.6973 -21.6101 0 
67.7415 -21.5829 0 67.7856 -21.5556 0 67.8296 -21.5284 0 
67.8735 -21.5011 0 67.9174 -21.4739 0 67.9613 -21.4466 0 
68.0049 -21.4193 0 68.0486 -21.392 0 68.0922 -21.3647 0 
68.1357 -21.3372 0 68.1791 -21.3099 0 68.2225 -21.2826 0 
[...]
POINT_DATA 5000
VECTORS velocity double
14.3355 -8.8642 0 14.5777 -8.24018 0 14.7038 -7.98032 0 
14.8077 -7.78308 0 14.8988 -7.61936 0 14.9807 -7.4778 0 
15.0556 -7.3525 0 15.1246 -7.23983 0 15.1886 -7.13748 0 
15.2481 -7.04379 0 15.3037 -6.95755 0 15.3556 -6.8778 0 
15.4043 -6.8038 0 15.4498 -6.73497 0 15.4924 -6.6708 0 
15.5324 -6.61087 0 15.5698 -6.55488 0 15.6048 -6.50244 0 
15.6376 -6.45333 0 15.6681 -6.40732 0 15.6966 -6.36418 0 
15.7232 -6.32376 0 15.7478 -6.28587 0 15.7707 -6.25038 0 
15.7918 -6.21713 0 15.8113 -6.18601 0 15.8291 -6.15695 0 
15.8454 -6.12977 0 15.8603 -6.1044 0 15.8737 -6.08075 0 
15.8857 -6.05876 0 15.8964 -6.03833 0 15.9059 -6.01939 0 
15.9141 -6.00188 0 15.9211 -5.98574 0 15.9269 -5.9709 0 
15.9316 -5.95731 0 15.9353 -5.94493 0 15.9379 -5.93368 0 
15.9395 -5.92353 0 15.9401 -5.91442 0 15.9398 -5.90633 0 
15.9386 -5.8992 0 15.9364 -5.89302 0 15.9334 -5.88772 0 
15.9296 -5.88327 0 15.925 -5.87967 0 15.9196 -5.87687 0 
15.9134 -5.87482 0 15.9065 -5.8735 0 15.8989 -5.87289 0 
15.8906 -5.87296 0 15.8816 -5.87368 0 15.872 -5.87504 0 
15.8618 -5.877 0 15.8509 -5.87955 0 15.8394 -5.88266 0 
15.8274 -5.88631 0 15.8148 -5.8905 0 15.8017 -5.89518 0 
15.7881 -5.90034 0 15.7739 -5.90596 0 15.7593 -5.91204 0 
15.7442 -5.91855 0 15.7286 -5.92547 0 15.7126 -5.9328 0 
15.6962 -5.94051 0 15.6793 -5.94859 0 15.662 -5.95705 0 
15.6443 -5.96583 0 15.6263 -5.97495 0 15.6079 -5.98439 0 
15.5891 -5.99413 0 15.5699 -6.00416 0 15.5505 -6.01449 0 
15.5307 -6.02508 0 15.5106 -6.03594 0 15.4902 -6.04705 0 
15.4695 -6.0584 0 15.4485 -6.06999 0 15.4272 -6.0818 0 
15.4057 -6.09383 0 15.3839 -6.10605 0 15.3618 -6.11848 0 
15.3396 -6.13109 0 15.317 -6.14389 0 15.2943 -6.15685 0 
15.2713 -6.16998 0 15.2481 -6.18328 0 15.2248 -6.19673 0 
15.2012 -6.21032 0 15.1775 -6.22405 0 15.1535 -6.23791 0 
15.1294 -6.25189 0 15.1051 -6.26599 0 15.0807 -6.28021 0 
15.0561 -6.29454 0 15.0314 -6.30896 0 15.0065 -6.32348 0 
14.9814 -6.33811 0 14.9563 -6.35282 0 14.931 -6.3676 0 
14.9056 -6.38246 0 14.88 -6.3974 0 14.8544 -6.4124 0 
14.8287 -6.42747 0 14.8028 -6.4426 0 14.7769 -6.45777 0 
14.7508 -6.473 0 14.7247 -6.48829 0 14.6985 -6.50362 0 
14.6722 -6.51898 0 14.6458 -6.53437 0 14.6194 -6.5498 0 
14.5929 -6.56527 0 14.5663 -6.58075 0 14.5397 -6.59626 0 
14.513 -6.61179 0 14.4862 -6.62734 0 14.4595 -6.64289 0 
14.4326 -6.65847 0 14.4058 -6.67405 0 14.3788 -6.68963 0 
14.3519 -6.70522 0 14.3249 -6.7208 0 14.2979 -6.73639 0 
14.2708 -6.75197 0 14.2438 -6.76753 0 14.2167 -6.78309 0 
14.1896 -6.79865 0 14.1624 -6.81418 0 14.1353 -6.8297 0 
14.1082 -6.8452 0 14.081 -6.86068 0 14.0538 -6.87615 0 
14.0267 -6.89158 0 13.9995 -6.90699 0 13.9723 -6.92237 0 
13.9452 -6.93772 0 13.918 -6.95304 0 13.8909 -6.96832 0 
13.8638 -6.98357 0 13.8366 -6.9988 0 13.8095 -7.01398 0 
13.7824 -7.02912 0 13.7553 -7.04422 0 13.7283 -7.05928 0 
13.7012 -7.07429 0 13.6742 -7.08926 0 13.6472 -7.10418 0 
13.6203 -7.11905 0 13.5934 -7.13389 0 13.5665 -7.14866 0 
13.5396 -7.16339 0 13.5127 -7.17807 0 13.4859 -7.19269 0 
13.4592 -7.20725 0 13.4324 -7.22177 0 13.4057 -7.23622 0 
13.3791 -7.25063 0 13.3524 -7.26498 0 13.3259 -7.27926 0 
13.2994 -7.29349 0 13.2729 -7.30764 0 13.2465 -7.32174 0 
13.2201 -7.33578 0 13.1937 -7.34976 0 13.1674 -7.36368 0 
13.1412 -7.37752 0 13.115 -7.39131 0 13.0889 -7.40501 0 
13.0628 -7.41867 0 13.0368 -7.43225 0 13.0108 -7.44575 0 
12.9849 -7.4592 0 12.959 -7.47258 0 12.9332 -7.48589 0 
12.9075 -7.49913 0 12.8818 -7.51229 0 12.8562 -7.52537 0 
12.8306 -7.5384 0 12.8051 -7.55135 0 12.7797 -7.56422 0 
12.7544 -7.57702 0 12.7291 -7.58975 0 12.7038 -7.60241 0 
12.6787 -7.61497 0 12.6536 -7.62748 0 12.6285 -7.63991 0 
12.6036 -7.65226 0 12.5787 -7.66454 0 12.5538 -7.67673 0 
12.5291 -7.68885 0 12.5044 -7.70089 0 12.4798 -7.71285 0 
12.4553 -7.72474 0 12.4308 -7.73656 0 12.4064 -7.74828 0 
12.3821 -7.75993 0 12.3578 -7.77151 0 12.3336 -7.783 0 
12.3095 -7.79442 0 12.2855 -7.80575 0 12.2615 -7.817 0 
12.2377 -7.82817 0 12.2139 -7.83927 0 12.1902 -7.85027 0 
12.1665 -7.86121 0 12.143 -7.87205 0 12.1195 -7.88283 0 
12.0961 -7.89351 0 12.0727 -7.90412 0 12.0495 -7.91464 0 
12.0263 -7.92509 0 12.0033 -7.93544 0 11.9802 -7.94572 0 
11.9573 -7.95592 0 11.9345 -7.96603 0 11.9117 -7.97606 0 
11.889 -7.98601 0 11.8664 -7.99589 0 11.8439 -8.00567 0 
11.8214 -8.01538 0 11.799 -8.025 0 11.7768 -8.03453 0 
11.7546 -8.04398 0 11.7325 -8.05336 0 11.7104 -8.06265 0 
11.6885 -8.07185 0 11.6666 -8.08098 0 11.6448 -8.09002 0 
11.6231 -8.09898 0 11.6015 -8.10786 0 11.58 -8.11666 0 
11.5585 -8.12536 0 11.5372 -8.13399 0 11.5159 -8.14253 0 
11.4947 -8.151 0 11.4736 -8.15938 0 11.4526 -8.16767 0 
11.4317 -8.17589 0 11.4108 -8.18402 0 11.39 -8.19207 0 
11.3694 -8.20004 0 11.3488 -8.20793 0 11.3283 -8.21572 0 
11.3079 -8.22344 0 11.2875 -8.23108 0 11.2672 -8.23865 0 
11.2471 -8.24612 0 11.227 -8.25351 0 11.207 -8.26083 0 
11.1871 -8.26805 0 11.1672 -8.27521 0 11.1475 -8.28227 0 
11.1278 -8.28926 0 11.1083 -8.29616 0 11.0888 -8.30298 0 
11.0694 -8.30972 0 11.0501 -8.31639 0 11.0309 -8.32296 0 
11.0117 -8.32946 0 10.9927 -8.33589 0 10.9737 -8.34223 0 
10.9548 -8.34849 0 10.936 -8.35467 0 10.9173 -8.36076 0 
10.8987 -8.36678 0 10.8801 -8.37272 0 10.8617 -8.37857 0 
10.8433 -8.38436 0 10.825 -8.39006 0 10.8068 -8.39568 0 
10.7886 -8.40123 0 10.7706 -8.4067 0 10.7527 -8.41207 0 
10.7348 -8.41738 0 10.7171 -8.42261 0 10.6994 -8.42775 0 
10.6818 -8.43283 0 10.6642 -8.43783 0 10.6468 -8.44274 0 
10.6294 -8.44758 0 10.6122 -8.45235 0 10.595 -8.45703 0 
10.5779 -8.46165 0 10.5608 -8.46618 0 10.544 -8.47062 0 
10.5271 -8.475 0 10.5104 -8.4793 0 10.4937 -8.48353 0 
10.4771 -8.48768 0 10.4605 -8.49176 0 10.4441 -8.49576 0 
10.4277 -8.49969 0 10.4115 -8.50354 0 10.3953 -8.50731 0 
10.3793 -8.511 0 10.3632 -8.51464 0 10.3473 -8.51819 0 
10.3315 -8.52166 0 10.3157 -8.52507 0 10.3 -8.52841 0 
10.2844 -8.53166 0 10.2689 -8.53484 0 10.2534 -8.53796 0 
10.2381 -8.541 0 10.2228 -8.54397 0 10.2076 -8.54685 0 
10.1925 -8.54967 0 10.1775 -8.55243 0 10.1626 -8.5551 0 
10.1477 -8.55771 0 10.1329 -8.56025 0 10.1182 -8.56272 0 
10.1035 -8.56511 0 10.089 -8.56744 0 10.0745 -8.5697 0 
10.0602 -8.57187 0 10.0459 -8.57398 0 10.0317 -8.57603 0 
10.0175 -8.57801 0 10.0034 -8.57991 0 9.98946 -8.58175 0 
9.97554 -8.58352 0 9.96171 -8.58522 0 9.94797 -8.58686 0 
9.93428 -8.58842 0 9.92073 -8.58991 0 9.90722 -8.59134 0 
9.89377 -8.5927 0 9.88041 -8.594 0 9.86711 -8.59523 0 
9.85392 -8.59639 0 9.84079 -8.59749 0 9.82772 -8.59853 0 
9.81474 -8.59949 0 9.80185 -8.60039 0 9.78901 -8.60123 0 
9.77631 -8.60198 0 9.76365 -8.60269 0 9.75105 -8.60333 0 
9.73855 -8.6039 0 9.72609 -8.60442 0 9.71373 -8.60486 0 
9.70142 -8.60525 0 9.68919 -8.60557 0 9.67707 -8.60583 0 
9.665 -8.60603 0 9.65305 -8.60615 0 9.64113 -8.60622 0 
9.62926 -8.60623 0 9.6175 -8.60618 0 9.60578 -8.60607 0 
9.59417 -8.60589 0 9.58263 -8.60565 0 9.57114 -8.60536 0 
9.55973 -8.605 0 9.54839 -8.60458 0 9.53714 -8.6041 0 
9.52598 -8.60355 0 9.51487 -8.60295 0 9.50381 -8.6023 0 
9.49284 -8.60159 0 9.48193 -8.60081 0 9.47108 -8.59998 0 
9.46031 -8.59909 0 9.44963 -8.59814 0 9.43901 -8.59714 0 
9.42844 -8.59608 0 9.41801 -8.59494 0 9.40759 -8.59376 0 
9.39725 -8.59253 0 9.38697 -8.59124 0 9.37678 -8.58989 0 
9.36665 -8.58849 0 9.35657 -8.58703 0 9.34658 -8.58552 0 
9.33664 -8.58395 0 9.32675 -8.58233 0 9.31696 -8.58065 0 
9.3073 -8.5789 0 9.29762 -8.57712 0 9.28802 -8.57528 0 
9.27851 -8.57338 0 9.26906 -8.57143 0 9.25966 -8.56943 0 
9.25031 -8.56739 0 9.24105 -8.56528 0 9.23185 -8.56312 0 
9.22273 -8.56091 0 9.21372 -8.55863 0 9.20471 -8.55632 0 
9.19575 -8.55396 0 9.18688 -8.55154 0 9.1781 -8.54908 0 
9.16934 -8.54656 0 9.16067 -8.54399 0 9.15204 -8.54138 0 
9.14351 -8.53871 0 9.13499 -8.536 0 9.12661 -8.53321 0 
9.11827 -8.5304 0 9.10994 -8.52754 0 9.10171 -8.52463 0 
9.09355 -8.52167 0 9.08543 -8.51866 0 9.07738 -8.5156 0 
9.06938 -8.5125 0 9.06144 -8.50936 0 9.05358 -8.50616 0 
9.04578 -8.50292 0 9.03808 -8.49961 0 9.03038 -8.49627 0 
9.02276 -8.49289 0 9.0152 -8.48947 0 9.00768 -8.48599 0 
9.00022 -8.48248 0 8.99285 -8.47892 0 8.98549 -8.47531 0 
8.97821 -8.47166 0 8.97102 -8.46796 0 8.9639 -8.46421 0 
8.95681 -8.46042 0 8.94978 -8.45659 0 8.94279 -8.45272 0 
8.93585 -8.44882 0 8.929 -8.44486 0 8.92219 -8.44086 0 
8.91541 -8.43682 0 8.90874 -8.43274 0 8.90208 -8.42862 0 
8.89548 -8.42446 0 8.889 -8.42023 0 8.88254 -8.41599 0 
8.87612 -8.4117 0 8.86974 -8.40737 0 8.86345 -8.40301 0 
8.85718 -8.3986 0 8.85098 -8.39415 0 8.84484 -8.38967 0 
8.83874 -8.38514 0 8.83269 -8.38058 0 8.82678 -8.37595 0 
8.82083 -8.37132 0 8.81496 -8.36663 0 8.80914 -8.36192 0 
8.80333 -8.35716 0 8.79764 -8.35237 0 8.79196 -8.34754 0 
8.78633 -8.34268 0 8.78079 -8.33777 0 8.77525 -8.33283 0 
8.76984 -8.32784 0 8.76443 -8.32283 0 8.75907 -8.31778 0 
8.75376 -8.31269 0 8.74849 -8.30758 0 8.74327 -8.30242 0 
8.73812 -8.29724 0 8.73299 -8.29201 0 8.72795 -8.28676 0 
8.72295 -8.28147 0 8.71796 -8.27614 0 8.71309 -8.27076 0 
8.70822 -8.26537 0 8.70341 -8.25994 0 8.69863 -8.25449 0 
8.69393 -8.24899 0 8.68924 -8.24347 0 8.6846 -8.23791 0 
8.68004 -8.23233 0 8.67549 -8.22671 0 8.67101 -8.22106 0 
8.66665 -8.21535 0 8.66222 -8.20964 0 8.65788 -8.2039 0 
8.65358 -8.19812 0 8.64934 -8.19232 0 8.64512 -8.18648 0 
8.64096 -8.18062 0 8.63684 -8.17472 0 8.63276 -8.1688 0 
8.62872 -8.16284 0 8.62473 -8.15686 0 8.62087 -8.15083 0 
8.61697 -8.14479 0 8.6131 -8.13872 0 8.60932 -8.13262 0 
8.60553 -8.1265 0 8.6018 -8.12034 0 8.59814 -8.11417 0 
8.59449 -8.10796 0 8.59092 -8.10173 0 8.58735 -8.09546 0 
8.58387 -8.08915 0 8.58042 -8.08284 0 8.57698 -8.0765 0 
8.57361 -8.07013 0 8.57025 -8.06374 0 8.56697 -8.05732 0 
8.56372 -8.05088 0 8.56049 -8.04441 0 8.55729 -8.03792 0 
8.55417 -8.0314 0 8.55105 -8.02486 0 8.54807 -8.01827 0 
8.54503 -8.01168 0 8.54206 -8.00506 0 8.53911 -7.99843 0 
8.53623 -7.99177 0 8.53335 -7.98508 0 8.53052 -7.97837 0 
8.52775 -7.97164 0 8.525 -7.96489 0 8.52228 -7.95811 0 
8.51969 -7.95129 0 8.51705 -7.94447 0 8.51445 -7.93763 0 
8.51189 -7.93076 0 8.50937 -7.92388 0 8.50688 -7.91697 0 
8.50443 -7.91004 0 8.50203 -7.90309 0 8.49965 -7.89613 0 
8.49731 -7.88914 0 8.49507 -7.88211 0 8.49281 -7.87508 0 
8.49056 -7.86803 0 8.48838 -7.86096 0 8.48623 -7.85387 0 
8.4841 -7.84676 0 8.48202 -7.83964 0 8.47996 -7.83249 0 
8.47793 -7.82532 0 8.47596 -7.81814 0 8.47401 -7.81094 0 
8.47214 -7.8037 0 8.47026 -7.79646 0 8.46841 -7.78921 0 
8.4666 -7.78193 0 8.46479 -7.77464 0 8.46305 -7.76733 0 
8.46135 -7.76001 0 8.45964 -7.75267 0 8.45801 -7.74531 0 
8.45638 -7.73794 0 8.45484 -7.73052 0 8.45331 -7.72312 0 
8.45178 -7.7157 0 8.4503 -7.70826 0 8.44884 -7.7008 0 
8.44739 -7.69333 0 8.446 -7.68585 0 8.44465 -7.67835 0 
8.4433 -7.67084 0 8.44199 -7.66331 0 8.44078 -7.65574 0 
8.43954 -7.64818 0 8.43832 -7.64061 0 8.43714 -7.63303 0 
8.436 -7.62543 0 8.43485 -7.61781 0 8.43378 -7.61019 0 
8.4327 -7.60254 0 8.43168 -7.59489 0 8.43068 -7.58723 0 
8.42969 -7.57955 0 8.42879 -7.57183 0 8.42788 -7.56413 0 
8.42697 -7.55641 0 8.42612 -7.54868 0 8.42527 -7.54094 0 
8.42446 -7.53319 0 8.42371 -7.52543 0 8.42296 -7.51765 0 
8.4222 -7.50986 0 8.42151 -7.50207 0 8.4209 -7.49424 0 
8.42025 -7.48641 0 8.41963 -7.47858 0 8.41903 -7.47074 0 
8.41846 -7.46289 0 8.41794 -7.45503 0 8.41744 -7.44716 0 
8.41694 -7.43928 0 8.41649 -7.43139 0 8.41606 -7.42348 0 
8.41566 -7.41557 0 8.41532 -7.40763 0 8.41498 -7.39971 0 
8.41463 -7.39176 0 8.41431 -7.38382 0 8.41405 -7.37586 0 
8.41379 -7.3679 0 8.41356 -7.35993 0 8.41333 -7.35194 0 
8.41315 -7.34396 0 8.41299 -7.33596 0 8.4129 -7.32793 0 
8.41279 -7.31992 0 8.4127 -7.3119 0 8.41265 -7.30388 0 
8.41259 -7.29584 0 8.4126 -7.2878 0 8.4126 -7.27975 0 
8.41263 -7.2717 0 8.41269 -7.26364 0 8.41274 -7.25556 0 
8.41284 -7.24749 0 8.41302 -7.23939 0 8.41314 -7.2313 0 
8.41331 -7.2232 0 8.41351 -7.21511 0 8.4137 -7.207 0 
8.41392 -7.19889 0 8.41418 -7.19077 0 8.41445 -7.18265 0 
8.41475 -7.17453 0 8.41507 -7.16639 0 8.41545 -7.15823 0 
8.4158 -7.15009 0 8.41619 -7.14195 0 8.4166 -7.1338 0 
8.41701 -7.12564 0 8.41745 -7.11748 0 8.41791 -7.10932 0 
8.4184 -7.10115 0 8.41888 -7.09298 0 8.41942 -7.08481 0 
8.41997 -7.07663 0 8.42059 -7.06843 0 8.42115 -7.06023 0 
8.42176 -7.05205 0 8.42238 -7.04386 0 8.42301 -7.03566 0 
8.42368 -7.02746 0 8.42435 -7.01926 0 8.42506 -7.01106 0 
8.42578 -7.00285 0 8.42649 -6.99464 0 8.4273 -6.98641 0 
8.42806 -6.97819 0 8.42887 -6.96998 0 8.42969 -6.96176 0 
8.43049 -6.95354 0 8.43135 -6.94532 0 8.43221 -6.9371 0 
8.43309 -6.92887 0 8.434 -6.92065 0 8.43489 -6.91241 0 
8.43587 -6.90416 0 8.43682 -6.89593 0 8.4378 -6.8877 0 
8.4388 -6.87947 0 8.43979 -6.87124 0 8.44082 -6.863 0 
8.44186 -6.85477 0 8.4429 -6.84653 0 8.44398 -6.8383 0 
8.44508 -6.83007 0 8.44615 -6.82182 0 8.44733 -6.81357 0 
8.44847 -6.80533 0 8.44961 -6.79709 0 8.4508 -6.78886 0 
8.45199 -6.78063 0 8.45319 -6.77239 0 8.4544 -6.76416 0 
8.45564 -6.75593 0 8.45687 -6.74769 0 8.45813 -6.73946 0 
8.45946 -6.7312 0 8.46076 -6.72298 0 8.46206 -6.71474 0 
8.46338 -6.70651 0 8.46472 -6.69829 0 8.46609 -6.69007 0 
8.46745 -6.68184 0 8.46883 -6.67362 0 8.47024 -6.6654 0 
8.47164 -6.65718 0 8.47309 -6.64896 0 8.47459 -6.64073 0 
8.47602 -6.63251 0 8.47751 -6.6243 0 8.47899 -6.61609 0 
8.4805 -6.60789 0 8.48199 -6.59968 0 8.48354 -6.59148 0 
8.48508 -6.58328 0 8.48661 -6.57508 0 8.4882 -6.56689 0 
8.48982 -6.55867 0 8.49143 -6.55049 0 8.49301 -6.54229 0 
8.49466 -6.53412 0 8.4963 -6.52594 0 8.49792 -6.51776 0 
8.4996 -6.50959 0 8.50128 -6.50142 0 8.50297 -6.49325 0 
8.50465 -6.48509 0 8.50644 -6.47691 0 8.50817 -6.46876 0 
8.50989 -6.4606 0 8.51166 -6.45246 0 8.51343 -6.44431 0 
8.51517 -6.43617 0 8.51698 -6.42803 0 8.51877 -6.4199 0 
8.52059 -6.41177 0 8.52243 -6.40365 0 8.52427 -6.39553 0 
8.52616 -6.3874 0 8.528 -6.37928 0 8.5299 -6.37118 0 
8.53178 -6.36308 0 8.53366 -6.35498 0 8.53558 -6.34689 0 
8.5375 -6.3388 0 8.53945 -6.33072 0 8.54137 -6.32264 0 
8.54332 -6.31457 0 8.54534 -6.30648 0 8.54734 -6.29842 0 
8.54931 -6.29036 0 8.55131 -6.28231 0 8.55334 -6.27427 0 
8.55535 -6.26623 0 8.55739 -6.25819 0 8.55941 -6.25016 0 
8.56148 -6.24214 0 8.56354 -6.23412 0 8.5656 -6.2261 0 
8.56775 -6.21808 0 8.56986 -6.21008 0 8.57197 -6.20208 0 
8.57408 -6.19409 0 8.5762 -6.18611 0 8.57835 -6.17813 0 
8.58048 -6.17016 0 8.58264 -6.16219 0 8.58482 -6.15424 0 
8.58699 -6.14629 0 8.58925 -6.13833 0 8.59143 -6.13038 0 
8.59365 -6.12245 0 8.59587 -6.11453 0 8.59811 -6.10661 0 
8.60034 -6.09869 0 8.60258 -6.09078 0 8.60484 -6.08289 0 
8.60709 -6.07499 0 8.60937 -6.0671 0 8.61172 -6.05921 0 
8.61403 -6.05134 0 8.61634 -6.04347 0 8.61866 -6.03562 0 
8.62097 -6.02777 0 8.6233 -6.01992 0 8.62566 -6.01209 0 
8.628 -6.00426 0 8.63036 -5.99644 0 8.63274 -5.98862 0 
8.63512 -5.98082 0 8.63755 -5.973 0 8.63995 -5.96521 0 
8.64235 -5.95742 0 8.64477 -5.94965 0 8.64721 -5.94188 0 
8.64964 -5.93412 0 8.65208 -5.92636 0 8.65451 -5.91861 0 
8.65697 -5.91088 0 8.65944 -5.90315 0 8.66197 -5.89541 0 
8.66446 -5.88769 0 8.66696 -5.87999 0 8.66945 -5.87229 0 
8.67196 -5.8646 0 8.67448 -5.85692 0 8.677 -5.84924 0 
8.67953 -5.84158 0 8.68209 -5.83392 0 8.68463 -5.82627 0 
8.68719 -5.81863 0 8.68982 -5.81098 0 8.69239 -5.80336 0 
8.69498 -5.79575 0 8.69756 -5.78814 0 8.70015 -5.78053 0 
8.70277 -5.77295 0 8.70541 -5.76537 0 8.70803 -5.7578 0 
8.71063 -5.75023 0 8.7133 -5.74268 0 8.71599 -5.73512 0 
8.71863 -5.72757 0 8.72129 -5.72005 0 8.72397 -5.71253 0 
8.72666 -5.70502 0 8.72934 -5.69752 0 8.73201 -5.69002 0 
8.73474 -5.68254 0 8.73744 -5.67507 0 8.74014 -5.6676 0 
8.74294 -5.66013 0 8.74564 -5.65267 0 8.74839 -5.64524 0 
8.75114 -5.63781 0 8.7539 -5.63039 0 8.75664 -5.62298 0 
8.75941 -5.61557 0 8.7622 -5.60819 0 8.76497 -5.6008 0 
8.76777 -5.59343 0 8.77055 -5.58606 0 8.7734 -5.57869 0 
8.77622 -5.57134 0 8.77902 -5.564 0 8.78185 -5.55668 0 
8.7847 -5.54937 0 8.78753 -5.54206 0 8.79039 -5.53476 0 
8.79322 -5.52747 0 8.79608 -5.52019 0 8.79895 -5.51292 0 
8.80187 -5.50564 0 8.80475 -5.49839 0 8.80766 -5.49116 0 
8.81055 -5.48393 0 8.81342 -5.4767 0 8.81635 -5.4695 0 
8.81927 -5.4623 0 8.82218 -5.4551 0 8.82511 -5.44792 0 
8.82806 -5.44074 0 8.83102 -5.43359 0 8.83397 -5.42643 0 
8.83691 -5.41928 0 8.83988 -5.41215 0 8.84285 -5.40503 0 
8.84585 -5.39792 0 8.84883 -5.39082 0 8.8518 -5.38372 0 
8.8548 -5.37664 0 8.8578 -5.36957 0 8.86083 -5.36251 0 
8.86385 -5.35546 0 8.86684 -5.34841 0 8.8699 -5.34138 0 
8.87294 -5.33436 0 8.87597 -5.32735 0 8.87902 -5.32035 0 
8.88209 -5.31336 0 8.88515 -5.30637 0 8.88821 -5.2994 0 
8.89127 -5.29244 0 8.89436 -5.28549 0 8.89745 -5.27855 0 
8.90054 -5.27162 0 8.90364 -5.2647 0 8.90677 -5.2578 0 
8.90988 -5.2509 0 8.91298 -5.24401 0 8.91609 -5.23713 0 
8.91924 -5.23026 0 8.92239 -5.22341 0 8.92554 -5.21657 0 
8.92866 -5.20972 0 8.93184 -5.20291 0 8.93498 -5.19609 0 
8.93817 -5.18929 0 8.94134 -5.1825 0 8.94451 -5.17571 0 
8.94768 -5.16893 0 8.95089 -5.16218 0 8.95407 -5.15542 0 
8.95728 -5.14868 0 8.96051 -5.14196 0 8.96372 -5.13523 0 
8.96696 -5.12853 0 8.97018 -5.12183 0 8.97342 -5.11514 0 
8.97664 -5.10846 0 8.97989 -5.1018 0 8.98315 -5.09514 0 
8.98641 -5.0885 0 8.98968 -5.08186 0 8.99294 -5.07524 0 
8.99622 -5.06863 0 8.99951 -5.06203 0 9.0028 -5.05544 0 
9.00607 -5.04885 0 9.00939 -5.04229 0 9.0127 -5.03573 0 
9.016 -5.02918 0 9.01932 -5.02264 0 9.02265 -5.01612 0 
9.02598 -5.0096 0 9.02933 -5.0031 0 9.03265 -4.9966 0 
9.03601 -4.99012 0 9.03935 -4.98364 0 9.0427 -4.97718 0 
9.04608 -4.97073 0 9.04944 -4.96429 0 9.05282 -4.95786 0 
9.05619 -4.95144 0 9.05958 -4.94503 0 9.06299 -4.93864 0 
9.0664 -4.93226 0 9.06981 -4.92589 0 9.07321 -4.91952 0 
9.07664 -4.91317 0 9.08005 -4.90682 0 9.08348 -4.90049 0 
9.08693 -4.89418 0 9.09037 -4.88787 0 9.09379 -4.88156 0 
9.09727 -4.87528 0 9.1007 -4.869 0 9.10419 -4.86274 0 
9.10766 -4.85648 0 9.11111 -4.85023 0 9.1146 -4.844 0 
9.11809 -4.83778 0 9.12158 -4.83157 0 9.12509 -4.82537 0 
9.12862 -4.81919 0 9.13209 -4.813 0 9.13563 -4.80684 0 
9.13915 -4.80068 0 9.14269 -4.79454 0 9.14621 -4.7884 0 
9.14976 -4.78228 0 9.1533 -4.77617 0 9.15685 -4.77007 0 
9.1604 -4.76397 0 9.16395 -4.75789 0 9.16754 -4.75183 0 
9.17111 -4.74577 0 9.1747 -4.73972 0 9.17828 -4.73368 0 
9.18188 -4.72766 0 9.18546 -4.72164 0 9.18907 -4.71564 0 
9.19269 -4.70965 0 9.1963 -4.70367 0 9.19993 -4.6977 0 
9.20356 -4.69174 0 9.2072 -4.6858 0 9.21084 -4.67986 0 
9.21448 -4.67393 0 9.21812 -4.66801 0 9.22177 -4.66211 0 
9.22545 -4.65622 0 9.22911 -4.65033 0 9.2328 -4.64447 0 
9.23648 -4.63861 0 9.24017 -4.63276 0 9.24385 -4.62691 0 
9.24756 -4.62109 0 9.25125 -4.61527 0 9.25496 -4.60946 0 
9.25868 -4.60367 0 9.2624 -4.59788 0 9.26614 -4.59211 0 
9.26987 -4.58635 0 9.27361 -4.5806 0 9.27735 -4.57486 0 
9.2811 -4.56913 0 9.28484 -4.56341 0 9.2886 -4.5577 0 
9.29239 -4.55201 0 9.29616 -4.54632 0 9.29996 -4.54065 0 
9.30374 -4.53498 0 9.30754 -4.52933 0 9.31133 -4.52369 0 
9.31514 -4.51806 0 9.31894 -4.51243 0 9.32276 -4.50682 0 
9.3266 -4.50123 0 9.33043 -4.49564 0 9.33425 -4.49006 0 
9.33809 -4.48449 0 9.34194 -4.47894 0 9.34579 -4.47339 0 
9.34965 -4.46786 0 9.35351 -4.46233 0 9.35739 -4.45682 0 
9.36128 -4.45132 0 9.36517 -4.44583 0 9.36904 -4.44035 0 
9.37294 -4.43488 0 9.37685 -4.42943 0 9.38074 -4.42398 0 
9.38468 -4.41854 0 9.38859 -4.41311 0 9.39253 -4.4077 0 
9.39644 -4.40229 0 9.40039 -4.3969 0 9.40432 -4.39151 0 
9.40828 -4.38614 0 9.41225 -4.38079 0 9.41622 -4.37544 0 
9.42021 -4.3701 0 9.42418 -4.36477 0 9.42817 -4.35946 0 
9.43215 -4.35414 0 9.43615 -4.34885 0 9.44015 -4.34356 0 
9.44416 -4.33829 0 9.44816 -4.33302 0 9.45219 -4.32777 0 
9.4562 -4.32252 0 9.46023 -4.31728 0 9.46428 -4.31206 0 
9.46833 -4.30685 0 9.4724 -4.30165 0 9.47645 -4.29646 0 
9.48052 -4.29129 0 9.48459 -4.28612 0 9.48868 -4.28096 0 
9.49274 -4.27581 0 9.49685 -4.27067 0 9.50093 -4.26554 0 
9.50504 -4.26043 0 9.50917 -4.25533 0 9.51328 -4.25023 0 
9.51738 -4.24514 0 9.52151 -4.24006 0 9.52567 -4.23501 0 
9.5298 -4.22995 0 9.53396 -4.22491 0 9.53811 -4.21988 0 
9.54228 -4.21486 0 9.54645 -4.20985 0 9.55063 -4.20485 0 
9.55479 -4.19985 0 9.55899 -4.19487 0 9.5632 -4.18991 0 