# vtk DataFile Version 3.0
vtk output
ASCII
DATASET POLYDATA
POINTS 5000 float
7.79198 -34.4667 0 11.2071 -34.1321 0 12.6356 -33.9819 0 
13.7352 -33.8633 0 14.6635 -33.7617 0 15.4818 -33.6712 0 
16.2214 -33.5887 0 16.9013 -33.5127 0 17.5335 -33.4418 0 
18.1265 -33.3753 0 18.6866 -33.3124 0 19.2185 -33.2528 0 
19.7258 -33.196 0 20.2113 -33.1418 0 20.6776 -33.0899 0 
21.1265 -33.04 0 21.5596 -32.992 0 21.9784 -32.9458 0 
22.3842 -32.9013 0 22.7777 -32.8583 0 23.16 -32.8167 0 
23.532 -32.7764 0 23.8942 -32.7373 0 24.2472 -32.6994 0 
24.5918 -32.6626 0 24.9284 -32.6269 0 25.2572 -32.592 0 
25.5789 -32.5582 0 25.8939 -32.5252 0 26.2024 -32.4931 0 
26.5047 -32.4618 0 26.8011 -32.4312 0 27.092 -32.4014 0 
27.3775 -32.3722 0 27.6579 -32.3437 0 27.9334 -32.3159 0 
28.2041 -32.2886 0 28.4704 -32.2618 0 28.7323 -32.2357 0 
28.99 -32.2101 0 29.2438 -32.185 0 29.4936 -32.1604 0 
29.7396 -32.1363 0 29.982 -32.1126 0 30.2209 -32.0894 0 
30.4565 -32.0665 0 30.6887 -32.0441 0 30.9178 -32.022 0 
31.1438 -32.0003 0 31.3667 -31.9789 0 31.5869 -31.9579 0 
31.8042 -31.9373 0 32.0188 -31.9169 0 32.2306 -31.8969 0 
32.4399 -31.8771 0 32.6467 -31.8576 0 32.8511 -31.8384 0 
33.053 -31.8195 0 33.2527 -31.8007 0 33.45 -31.7822 0 
33.6452 -31.764 0 33.8382 -31.746 0 34.0292 -31.7282 0 
34.218 -31.7106 0 34.4049 -31.6932 0 34.5899 -31.676 0 
34.7729 -31.6589 0 34.9541 -31.6421 0 35.1334 -31.6253 0 
35.3109 -31.6088 0 35.4868 -31.5924 0 35.6608 -31.5762 0 
35.8332 -31.5602 0 36.0041 -31.5442 0 36.1732 -31.5284 0 
36.3409 -31.5128 0 36.5071 -31.4972 0 36.6716 -31.4818 0 
36.8347 -31.4664 0 36.9964 -31.4511 0 37.1567 -31.436 0 
37.3156 -31.421 0 37.4732 -31.406 0 37.6294 -31.3912 0 
37.7842 -31.3764 0 37.9379 -31.3618 0 38.0902 -31.3472 0 
38.2413 -31.3326 0 38.3912 -31.3182 0 38.5399 -31.3037 0 
38.6875 -31.2893 0 38.8338 -31.2751 0 38.9791 -31.2608 0 
39.1232 -31.2467 0 39.2662 -31.2326 0 39.4082 -31.2185 0 
39.5491 -31.2044 0 39.689 -31.1905 0 39.8278 -31.1765 0 
39.9657 -31.1625 0 40.1026 -31.1486 0 40.2385 -31.1347 0 
40.3734 -31.1209 0 40.5074 -31.1071 0 40.6405 -31.0933 0 
40.7727 -31.0796 0 40.904 -31.0658 0 41.0343 -31.0521 0 
41.1638 -31.0384 0 41.2925 -31.0247 0 41.4204 -31.0109 0 
41.5474 -30.9972 0 41.6735 -30.9835 0 41.7989 -30.9698 0 
41.9235 -30.9562 0 42.0473 -30.9425 0 42.1704 -30.9288 0 
42.2927 -30.9151 0 42.4142 -30.9015 0 42.5349 -30.8878 0 
42.655 -30.874 0 42.7744 -30.8603 0 42.893 -30.8466 0 
43.011 -30.8328 0 43.1282 -30.8191 0 43.2448 -30.8054 0 
43.3608 -30.7916 0 43.476 -30.7778 0 43.5906 -30.764 0 
43.7046 -30.7502 0 43.8179 -30.7363 0 43.9306 -30.7224 0 
44.0428 -30.7085 0 44.1542 -30.6946 0 44.2651 -30.6807 0 
44.3755 -30.6667 0 44.4851 -30.6527 0 44.5943 -30.6387 0 
44.7028 -30.6247 0 44.8108 -30.6106 0 44.9183 -30.5965 0 
45.0251 -30.5823 0 45.1316 -30.5681 0 45.2374 -30.5539 0 
45.3427 -30.5397 0 45.4475 -30.5254 0 45.5517 -30.5111 0 
45.6555 -30.4968 0 45.7587 -30.4824 0 45.8614 -30.468 0 
45.9637 -30.4536 0 46.0655 -30.439 0 46.1667 -30.4245 0 
46.2676 -30.4099 0 46.3679 -30.3953 0 46.4678 -30.3807 0 
46.5672 -30.366 0 46.6662 -30.3513 0 46.7647 -30.3365 0 
46.8628 -30.3217 0 46.9604 -30.3069 0 47.0576 -30.292 0 
47.1545 -30.2769 0 47.2508 -30.2619 0 47.3467 -30.2469 0 
47.4422 -30.2318 0 47.5374 -30.2167 0 47.6321 -30.2016 0 
47.7264 -30.1863 0 47.8203 -30.1711 0 47.9138 -30.1558 0 
48.007 -30.1404 0 48.0997 -30.1249 0 48.1921 -30.1095 0 
48.2841 -30.094 0 48.3758 -30.0784 0 48.467 -30.0628 0 
48.5579 -30.0472 0 48.6485 -30.0315 0 48.7386 -30.0157 0 
48.8284 -29.9999 0 48.9179 -29.9841 0 49.007 -29.9682 0 
49.0958 -29.9522 0 49.1843 -29.9362 0 49.2724 -29.9201 0 
49.3602 -29.904 0 49.4477 -29.8878 0 49.5348 -29.8716 0 
49.6216 -29.8554 0 49.7081 -29.8391 0 49.7942 -29.8227 0 
49.8801 -29.8063 0 49.9656 -29.7897 0 50.0509 -29.7732 0 
50.1358 -29.7566 0 50.2205 -29.74 0 50.3048 -29.7233 0 
50.3888 -29.7066 0 50.4725 -29.6898 0 50.556 -29.6729 0 
50.6392 -29.6561 0 50.722 -29.6391 0 50.8046 -29.6221 0 
50.887 -29.6049 0 50.969 -29.5878 0 51.0508 -29.5707 0 
51.1323 -29.5534 0 51.2135 -29.5362 0 51.2944 -29.5188 0 
51.3751 -29.5015 0 51.4556 -29.484 0 51.5357 -29.4665 0 
51.6156 -29.449 0 51.6953 -29.4313 0 51.7747 -29.4136 0 
51.8538 -29.3959 0 51.9327 -29.3782 0 52.0113 -29.3604 0 
52.0897 -29.3425 0 52.1679 -29.3246 0 52.2458 -29.3066 0 
52.3235 -29.2886 0 52.4009 -29.2705 0 52.4782 -29.2522 0 
52.5551 -29.234 0 52.6319 -29.2158 0 52.7084 -29.1975 0 
52.7846 -29.1791 0 52.8607 -29.1607 0 52.9366 -29.1422 0 
53.0122 -29.1237 0 53.0876 -29.1051 0 53.1627 -29.0865 0 
53.2377 -29.0678 0 53.3124 -29.049 0 53.3869 -29.0302 0 
53.4613 -29.0114 0 53.5354 -28.9925 0 53.6092 -28.9735 0 
53.6829 -28.9545 0 53.7564 -28.9354 0 53.8297 -28.9163 0 
53.9027 -28.8972 0 53.9756 -28.878 0 54.0483 -28.8586 0 
54.1207 -28.8393 0 54.193 -28.8199 0 54.2651 -28.8005 0 
54.337 -28.781 0 54.4087 -28.7614 0 54.4802 -28.7419 0 
54.5515 -28.7222 0 54.6226 -28.7025 0 54.6936 -28.6828 0 
54.7643 -28.663 0 54.8349 -28.643 0 54.9053 -28.6231 0 
54.9755 -28.6032 0 55.0456 -28.5832 0 55.1154 -28.5631 0 
55.185 -28.543 0 55.2545 -28.5228 0 55.3239 -28.5026 0 
55.393 -28.4824 0 55.462 -28.4621 0 55.5308 -28.4416 0 
55.5994 -28.4212 0 55.6679 -28.4007 0 55.7361 -28.3802 0 
55.8043 -28.3596 0 55.8722 -28.339 0 55.94 -28.3184 0 
56.0077 -28.2977 0 56.0751 -28.2769 0 56.1424 -28.2561 0 
56.2095 -28.2352 0 56.2766 -28.2142 0 56.3433 -28.1932 0 
56.41 -28.1722 0 56.4766 -28.1512 0 56.5429 -28.1301 0 
56.6091 -28.1089 0 56.6751 -28.0877 0 56.741 -28.0664 0 
56.8068 -28.0451 0 56.8723 -28.0238 0 56.9378 -28.0023 0 
57.0031 -27.9808 0 57.0682 -27.9593 0 57.1332 -27.9378 0 
57.198 -27.9162 0 57.2627 -27.8946 0 57.3273 -27.8729 0 
57.3917 -27.8512 0 57.4559 -27.8294 0 57.5201 -27.8076 0 
57.5841 -27.7856 0 57.648 -27.7637 0 57.7117 -27.7417 0 
57.7752 -27.7197 0 57.8386 -27.6976 0 57.9019 -27.6755 0 
57.965 -27.6534 0 58.028 -27.6312 0 58.0909 -27.609 0 
58.1537 -27.5867 0 58.2163 -27.5644 0 58.2788 -27.5419 0 
58.3411 -27.5195 0 58.4034 -27.497 0 58.4654 -27.4745 0 
58.5274 -27.452 0 58.5892 -27.4294 0 58.6509 -27.4067 0 
58.7125 -27.3841 0 58.7739 -27.3614 0 58.8352 -27.3386 0 
58.8964 -27.3157 0 58.9574 -27.2928 0 59.0184 -27.2699 0 
59.0792 -27.247 0 59.1399 -27.224 0 59.2004 -27.201 0 
59.2609 -27.1779 0 59.3212 -27.1548 0 59.3813 -27.1317 0 
59.4414 -27.1085 0 59.5014 -27.0852 0 59.5612 -27.0619 0 
59.621 -27.0386 0 59.6806 -27.0153 0 59.7401 -26.9919 0 
59.7994 -26.9684 0 59.8586 -26.945 0 59.9178 -26.9215 0 
59.9768 -26.8979 0 60.0357 -26.8743 0 60.0945 -26.8507 0 
60.1532 -26.8269 0 60.2117 -26.8032 0 60.2701 -26.7795 0 
60.3284 -26.7557 0 60.3867 -26.7319 0 60.4448 -26.708 0 
60.5028 -26.6841 0 60.5607 -26.6602 0 60.6184 -26.6362 0 
60.6761 -26.6122 0 60.7336 -26.588 0 60.7911 -26.5639 0 
60.8485 -26.5398 0 60.9056 -26.5157 0 60.9628 -26.4915 0 
61.0198 -26.4672 0 61.0767 -26.4429 0 61.1335 -26.4186 0 
61.1902 -26.3943 0 61.2468 -26.3699 0 61.3033 -26.3455 0 
61.3597 -26.3209 0 61.4159 -26.2964 0 61.4721 -26.2719 0 
61.5282 -26.2474 0 61.5841 -26.2228 0 61.6401 -26.1981 0 
61.6958 -26.1735 0 61.7515 -26.1488 0 61.807 -26.1241 0 
61.8625 -26.0993 0 61.9179 -26.0744 0 61.9731 -26.0496 0 
62.0283 -26.0247 0 62.0834 -25.9998 0 62.1383 -25.9749 0 
62.1931 -25.9499 0 62.2479 -25.9249 0 62.3026 -25.8999 0 
62.3571 -25.8748 0 62.4116 -25.8497 0 62.466 -25.8246 0 
62.5203 -25.7993 0 62.5745 -25.7741 0 62.6286 -25.7489 0 
62.6825 -25.7236 0 62.7364 -25.6984 0 62.7902 -25.673 0 
62.844 -25.6477 0 62.8975 -25.6223 0 62.9511 -25.5969 0 
63.0045 -25.5715 0 63.0578 -25.5459 0 63.1111 -25.5204 0 
63.1643 -25.4948 0 63.2173 -25.4693 0 63.2702 -25.4437 0 
63.3231 -25.4181 0 63.3759 -25.3924 0 63.4286 -25.3668 0 
63.4811 -25.341 0 63.5337 -25.3153 0 63.5861 -25.2894 0 
63.6384 -25.2637 0 63.6907 -25.2378 0 63.7428 -25.212 0 
63.7948 -25.1861 0 63.8468 -25.1602 0 63.8986 -25.1343 0 
63.9504 -25.1083 0 64.0022 -25.0823 0 64.0537 -25.0563 0 
64.1052 -25.0303 0 64.1567 -25.0041 0 64.2081 -24.978 0 
64.2593 -24.9519 0 64.3105 -24.9257 0 64.3616 -24.8996 0 
64.4126 -24.8734 0 64.4635 -24.8471 0 64.5144 -24.8209 0 
64.5651 -24.7946 0 64.6157 -24.7683 0 64.6663 -24.7419 0 
64.7168 -24.7155 0 64.7672 -24.6891 0 64.8175 -24.6627 0 
64.8678 -24.6363 0 64.9179 -24.6099 0 64.9679 -24.5834 0 
65.018 -24.5569 0 65.0678 -24.5304 0 65.1176 -24.5038 0 
65.1674 -24.4773 0 65.2171 -24.4506 0 65.2666 -24.424 0 
65.3161 -24.3973 0 65.3655 -24.3706 0 65.4148 -24.344 0 
65.464 -24.3173 0 65.5132 -24.2905 0 65.5622 -24.2638 0 
65.6112 -24.237 0 65.6602 -24.2102 0 65.709 -24.1833 0 
65.7577 -24.1564 0 65.8064 -24.1296 0 65.855 -24.1027 0 
65.9035 -24.0758 0 65.9519 -24.0489 0 66.0003 -24.0219 0 
66.0485 -23.9949 0 66.0967 -23.968 0 66.1448 -23.941 0 
66.1929 -23.9138 0 66.2408 -23.8868 0 66.2887 -23.8597 0 
66.3365 -23.8326 0 66.3842 -23.8055 0 66.4318 -23.7784 0 
66.4794 -23.7512 0 66.5269 -23.7241 0 66.5743 -23.6969 0 
66.6215 -23.6697 0 66.6688 -23.6424 0 66.716 -23.6151 0 
66.7631 -23.5878 0 66.8101 -23.5605 0 66.8571 -23.5332 0 
66.9039 -23.5059 0 66.9507 -23.4786 0 66.9974 -23.4512 0 
67.044 -23.4239 0 67.0906 -23.3965 0 67.137 -23.3691 0 
67.1834 -23.3415 0 67.2298 -23.3141 0 67.2761 -23.2866 0 
67.3222 -23.2591 0 67.3683 -23.2317 0 67.4143 -23.2041 0 
67.4603 -23.1766 0 67.5061 -23.1491 0 67.5519 -23.1215 0 
67.5977 -23.0939 0 67.6433 -23.0664 0 67.6889 -23.0386 0 
67.7344 -23.011 0 67.7798 -22.9834 0 67.8251 -22.9557 0 
67.8704 -22.928 0 67.9156 -22.9004 0 67.9607 -22.8727 0 
68.0058 -22.8449 0 68.0507 -22.8172 0 68.0957 -22.7895 0 
68.1406 -22.7616 0 68.1853 -22.7338 0 68.23 -22.706 0 
68.2746 -22.6782 0 68.3192 -22.6504 0 68.3636 -22.6226 0 
68.408 -22.5948 0 68.4523 -22.5669 0 68.4966 -22.539 0 
68.5407 -22.5111 0 68.5849 -22.4832 0 68.6289 -22.4552 0 
68.6729 -22.4273 0 68.7167 -22.3994 0 68.7606 -22.3714 0 
68.8043 -22.3434 0 68.848 -22.3155 0 68.8916 -22.2875 0 
68.9351 -22.2595 0 68.9786 -22.2315 0 69.022 -22.2034 0 
[...]
POINT_DATA 5000
VECTORS velocity double
15.0112 -9.65558 0 15.1691 -8.98609 0 15.2574 -8.70374 0 
15.3315 -8.48799 0 15.3971 -8.30792 0 15.4563 -8.15146 0 
15.5104 -8.01235 0 15.5602 -7.88674 0 15.6063 -7.77216 0 
15.6489 -7.66687 0 15.6885 -7.56957 0 15.7253 -7.47924 0 
15.7595 -7.39509 0 15.7911 -7.31652 0 15.8205 -7.24295 0 
15.8477 -7.17397 0 15.8728 -7.10925 0 15.8959 -7.04837 0 
15.9172 -6.99107 0 15.9367 -6.93715 0 15.9545 -6.88634 0 
15.9706 -6.83846 0 15.9851 -6.79334 0 15.9982 -6.75081 0 
16.0098 -6.71073 0 16.02 -6.67296 0 16.0288 -6.63743 0 
16.0364 -6.60394 0 16.0427 -6.57243 0 16.0478 -6.54278 0 
16.0518 -6.51494 0 16.0546 -6.48881 0 16.0564 -6.46429 0 
16.0571 -6.44134 0 16.0569 -6.41988 0 16.0556 -6.39983 0 
16.0534 -6.38115 0 16.0503 -6.3638 0 16.0463 -6.34767 0 
16.0415 -6.33274 0 16.0359 -6.31896 0 16.0294 -6.30628 0 
16.0222 -6.29466 0 16.0143 -6.28407 0 16.0056 -6.27445 0 
15.9962 -6.26576 0 15.9862 -6.25799 0 15.9755 -6.2511 0 
15.9642 -6.24504 0 15.9523 -6.23977 0 15.9398 -6.23528 0 
15.9267 -6.23154 0 15.9131 -6.22851 0 15.8989 -6.22618 0 
15.8843 -6.22451 0 15.8691 -6.22349 0 15.8534 -6.22308 0 
15.8373 -6.22327 0 15.8208 -6.22405 0 15.8038 -6.22537 0 
15.7863 -6.22722 0 15.7685 -6.22958 0 15.7503 -6.23244 0 
15.7317 -6.23578 0 15.7127 -6.23958 0 15.6933 -6.24382 0 
15.6737 -6.24849 0 15.6537 -6.25356 0 15.6334 -6.25906 0 
15.6127 -6.26492 0 15.5918 -6.27114 0 15.5706 -6.27773 0 
15.5491 -6.28465 0 15.5273 -6.29191 0 15.5053 -6.29948 0 
15.483 -6.30735 0 15.4605 -6.31553 0 15.4378 -6.32398 0 
15.4148 -6.33271 0 15.3916 -6.34171 0 15.3683 -6.35095 0 
15.3447 -6.36044 0 15.3209 -6.37016 0 15.2969 -6.3801 0 
15.2728 -6.39026 0 15.2485 -6.40063 0 15.2241 -6.41119 0 
15.1995 -6.42195 0 15.1747 -6.43289 0 15.1498 -6.44401 0 
15.1248 -6.4553 0 15.0996 -6.46674 0 15.0743 -6.47834 0 
15.0489 -6.49009 0 15.0234 -6.50197 0 14.9978 -6.514 0 
14.972 -6.52615 0 14.9462 -6.53842 0 14.9203 -6.55081 0 
14.8943 -6.56333 0 14.8682 -6.57595 0 14.8421 -6.58866 0 
14.8158 -6.60147 0 14.7895 -6.61437 0 14.7632 -6.62736 0 
14.7367 -6.64043 0 14.7102 -6.65358 0 14.6837 -6.66679 0 
14.6571 -6.68008 0 14.6305 -6.69344 0 14.6039 -6.70687 0 
14.5772 -6.72033 0 14.5504 -6.73386 0 14.5237 -6.74743 0 
14.4969 -6.76105 0 14.47 -6.77471 0 14.4432 -6.78842 0 
14.4163 -6.80216 0 14.3895 -6.81592 0 14.3626 -6.82972 0 
14.3357 -6.84355 0 14.3088 -6.85739 0 14.2819 -6.87126 0 
14.255 -6.88514 0 14.2281 -6.89904 0 14.2012 -6.91295 0 
14.1743 -6.92688 0 14.1475 -6.9408 0 14.1206 -6.95473 0 
14.0938 -6.96866 0 14.0669 -6.98259 0 14.0401 -6.99653 0 
14.0133 -7.01046 0 13.9866 -7.02438 0 13.9598 -7.03829 0 
13.9331 -7.05219 0 13.9064 -7.06608 0 13.8797 -7.07995 0 
13.8531 -7.0938 0 13.8265 -7.10764 0 13.7999 -7.12146 0 
13.7734 -7.13525 0 13.7469 -7.14903 0 13.7204 -7.16278 0 
13.694 -7.1765 0 13.6677 -7.19019 0 13.6413 -7.20385 0 
13.615 -7.21748 0 13.5888 -7.23108 0 13.5626 -7.24464 0 
13.5365 -7.25817 0 13.5104 -7.27166 0 13.4844 -7.28511 0 
13.4584 -7.29853 0 13.4325 -7.3119 0 13.4067 -7.32524 0 
13.3809 -7.33852 0 13.3551 -7.35177 0 13.3294 -7.36497 0 
13.3038 -7.37812 0 13.2782 -7.39124 0 13.2527 -7.4043 0 
13.2273 -7.41731 0 13.2019 -7.43027 0 13.1766 -7.44318 0 
13.1513 -7.45603 0 13.1261 -7.46884 0 13.101 -7.4816 0 
13.076 -7.49429 0 13.051 -7.50694 0 13.0261 -7.51953 0 
13.0012 -7.53206 0 12.9765 -7.54453 0 12.9518 -7.55694 0 
12.9272 -7.5693 0 12.9026 -7.5816 0 12.8781 -7.59385 0 
12.8537 -7.60602 0 12.8294 -7.61813 0 12.8052 -7.63018 0 
12.781 -7.64218 0 12.7569 -7.65411 0 12.7329 -7.66597 0 
12.709 -7.67777 0 12.6851 -7.68951 0 12.6613 -7.70118 0 
12.6376 -7.71278 0 12.614 -7.72433 0 12.5904 -7.7358 0 
12.567 -7.7472 0 12.5436 -7.75855 0 12.5203 -7.76981 0 
12.4971 -7.78102 0 12.474 -7.79215 0 12.4509 -7.80322 0 
12.4279 -7.81421 0 12.405 -7.82514 0 12.3823 -7.836 0 
12.3595 -7.84678 0 12.3369 -7.8575 0 12.3144 -7.86814 0 
12.2919 -7.87872 0 12.2695 -7.88923 0 12.2472 -7.89966 0 
12.225 -7.91001 0 12.2029 -7.9203 0 12.1809 -7.93051 0 
12.1589 -7.94066 0 12.1371 -7.95072 0 12.1153 -7.96072 0 
12.0936 -7.97064 0 12.072 -7.98049 0 12.0505 -7.99026 0 
12.0291 -7.99997 0 12.0078 -8.00959 0 11.9865 -8.01915 0 
11.9654 -8.02863 0 11.9443 -8.03802 0 11.9233 -8.04735 0 
11.9024 -8.0566 0 11.8816 -8.06579 0 11.8609 -8.07489 0 
11.8403 -8.08393 0 11.8197 -8.09288 0 11.7993 -8.10175 0 
11.779 -8.11055 0 11.7587 -8.11928 0 11.7385 -8.12794 0 
11.7184 -8.13651 0 11.6984 -8.14502 0 11.6785 -8.15344 0 
11.6587 -8.16179 0 11.639 -8.17007 0 11.6193 -8.17827 0 
11.5998 -8.18639 0 11.5804 -8.19443 0 11.561 -8.20239 0 
11.5417 -8.21029 0 11.5225 -8.21811 0 11.5034 -8.22584 0 
11.4844 -8.23351 0 11.4655 -8.24111 0 11.4467 -8.24862 0 
11.4279 -8.25605 0 11.4093 -8.26342 0 11.3908 -8.27069 0 
11.3723 -8.2779 0 11.3539 -8.28503 0 11.3356 -8.2921 0 
11.3174 -8.29908 0 11.2993 -8.30598 0 11.2813 -8.31282 0 
11.2634 -8.31956 0 11.2455 -8.32624 0 11.2278 -8.33284 0 
11.2101 -8.33937 0 11.1925 -8.34582 0 11.1751 -8.35219 0 
11.1577 -8.35849 0 11.1404 -8.36472 0 11.1232 -8.37086 0 
11.1061 -8.37694 0 11.089 -8.38294 0 11.0721 -8.38887 0 
11.0552 -8.39472 0 11.0384 -8.40049 0 11.0218 -8.40618 0 
11.0052 -8.4118 0 10.9887 -8.41736 0 10.9723 -8.42283 0 
10.9559 -8.42824 0 10.9397 -8.43356 0 10.9236 -8.43881 0 
10.9075 -8.444 0 10.8915 -8.4491 0 10.8756 -8.45413 0 
10.8598 -8.45909 0 10.8441 -8.46396 0 10.8285 -8.46877 0 
10.813 -8.47351 0 10.7975 -8.47818 0 10.7822 -8.48277 0 
10.7669 -8.48728 0 10.7517 -8.49173 0 10.7366 -8.4961 0 
10.7216 -8.50041 0 10.7067 -8.50463 0 10.6919 -8.50877 0 
10.6771 -8.51286 0 10.6624 -8.51686 0 10.6478 -8.52081 0 
10.6333 -8.52467 0 10.6189 -8.52847 0 10.6046 -8.5322 0 
10.5903 -8.53585 0 10.5762 -8.53943 0 10.5621 -8.54294 0 
10.5482 -8.54637 0 10.5342 -8.54975 0 10.5204 -8.55305 0 
10.5067 -8.55627 0 10.493 -8.55943 0 10.4794 -8.56253 0 
10.466 -8.56554 0 10.4526 -8.56849 0 10.4393 -8.57137 0 
10.426 -8.57419 0 10.4128 -8.57693 0 10.3998 -8.57959 0 
10.3868 -8.5822 0 10.3739 -8.58474 0 10.3611 -8.5872 0 
10.3483 -8.58961 0 10.3357 -8.59194 0 10.3231 -8.59421 0 
10.3106 -8.5964 0 10.2982 -8.59853 0 10.2858 -8.6006 0 
10.2736 -8.60258 0 10.2615 -8.60451 0 10.2493 -8.60637 0 
10.2373 -8.60817 0 10.2254 -8.6099 0 10.2135 -8.61156 0 
10.2018 -8.61316 0 10.1901 -8.6147 0 10.1785 -8.61616 0 
10.1669 -8.61757 0 10.1555 -8.61889 0 10.1441 -8.62016 0 
10.1328 -8.62138 0 10.1216 -8.62252 0 10.1104 -8.6236 0 
10.0994 -8.62461 0 10.0884 -8.62557 0 10.0774 -8.62646 0 
10.0666 -8.62729 0 10.0558 -8.62805 0 10.0451 -8.62875 0 
10.0346 -8.62937 0 10.0241 -8.62994 0 10.0136 -8.63046 0 
10.0032 -8.6309 0 9.9929 -8.6313 0 9.98267 -8.63162 0 
9.9725 -8.63189 0 9.96242 -8.6321 0 9.95243 -8.63224 0 
9.94249 -8.63232 0 9.93269 -8.63232 0 9.9229 -8.63229 0 
9.91317 -8.63219 0 9.90355 -8.63203 0 9.89396 -8.63182 0 
9.88449 -8.63154 0 9.87507 -8.6312 0 9.86572 -8.63081 0 
9.85645 -8.63036 0 9.84724 -8.62984 0 9.83812 -8.62927 0 
9.8291 -8.62863 0 9.82012 -8.62794 0 9.8112 -8.6272 0 
9.80236 -8.6264 0 9.79358 -8.62554 0 9.78486 -8.62463 0 
9.77622 -8.62366 0 9.76767 -8.62263 0 9.75918 -8.62155 0 
9.75074 -8.62041 0 9.74244 -8.61919 0 9.73414 -8.61794 0 
9.72593 -8.61664 0 9.71778 -8.61527 0 9.70971 -8.61386 0 
9.7017 -8.61239 0 9.69374 -8.61086 0 9.68588 -8.60928 0 
9.67806 -8.60765 0 9.67029 -8.60597 0 9.66262 -8.60423 0 
9.65508 -8.60241 0 9.64752 -8.60057 0 9.64004 -8.59867 0 
9.63264 -8.59671 0 9.6253 -8.59471 0 9.61802 -8.59266 0 
9.61079 -8.59055 0 9.60364 -8.58839 0 9.59655 -8.58618 0 
9.58954 -8.58392 0 9.58264 -8.58159 0 9.57573 -8.57923 0 
9.56889 -8.57682 0 9.56212 -8.57435 0 9.55544 -8.57184 0 
9.54879 -8.56928 0 9.54222 -8.56667 0 9.53569 -8.564 0 
9.52926 -8.56129 0 9.52284 -8.55854 0 9.51656 -8.55571 0 
9.51031 -8.55286 0 9.50409 -8.54995 0 9.49794 -8.547 0 
9.49188 -8.544 0 9.48584 -8.54096 0 9.47989 -8.53786 0 
9.47398 -8.53473 0 9.46812 -8.53154 0 9.46236 -8.52831 0 
9.45663 -8.52503 0 9.45102 -8.52169 0 9.4454 -8.51832 0 
9.43986 -8.5149 0 9.43438 -8.51144 0 9.42894 -8.50794 0 
9.42355 -8.50439 0 9.41825 -8.50079 0 9.41296 -8.49716 0 
9.40776 -8.49348 0 9.40264 -8.48975 0 9.39758 -8.48596 0 
9.39256 -8.48215 0 9.38759 -8.47829 0 9.38267 -8.4744 0 
9.37779 -8.47046 0 9.37299 -8.46647 0 9.36825 -8.46245 0 
9.36352 -8.45838 0 9.3589 -8.45427 0 9.3543 -8.45012 0 
9.34975 -8.44594 0 9.34532 -8.44168 0 9.3409 -8.43741 0 
9.33653 -8.4331 0 9.3322 -8.42875 0 9.32794 -8.42436 0 
9.32372 -8.41993 0 9.31956 -8.41545 0 9.31544 -8.41094 0 
9.31139 -8.40639 0 9.30738 -8.40181 0 9.30349 -8.39716 0 
9.29957 -8.39249 0 9.29573 -8.38779 0 9.29193 -8.38305 0 
9.28814 -8.37827 0 9.28447 -8.37346 0 9.28081 -8.36861 0 
9.2772 -8.36372 0 9.27366 -8.35879 0 9.27014 -8.35383 0 
9.26675 -8.34881 0 9.26335 -8.34377 0 9.25999 -8.33871 0 
9.25668 -8.3336 0 9.25342 -8.32846 0 9.2502 -8.32328 0 
9.24705 -8.31807 0 9.24391 -8.31283 0 9.24085 -8.30755 0 
9.23785 -8.30224 0 9.23485 -8.29689 0 9.23197 -8.29149 0 
9.22909 -8.28607 0 9.22625 -8.28062 0 9.22345 -8.27514 0 
9.22073 -8.26963 0 9.21802 -8.26408 0 9.21536 -8.2585 0 
9.21276 -8.25289 0 9.21018 -8.24725 0 9.20767 -8.24158 0 
9.20526 -8.23585 0 9.2028 -8.23012 0 9.20042 -8.22435 0 
9.19808 -8.21855 0 9.19578 -8.21272 0 9.19352 -8.20686 0 
9.19131 -8.20097 0 9.18913 -8.19506 0 9.187 -8.18911 0 
9.1849 -8.18313 0 9.18285 -8.17713 0 9.18092 -8.17107 0 
9.17895 -8.165 0 9.17702 -8.15891 0 9.17516 -8.15279 0 
9.17331 -8.14664 0 9.1715 -8.14046 0 9.16976 -8.13426 0 
9.16803 -8.12802 0 9.16636 -8.12177 0 9.16472 -8.11548 0 
9.16315 -8.10914 0 9.16161 -8.1028 0 9.16006 -8.09644 0 
9.1586 -8.09004 0 9.15714 -8.08363 0 9.15576 -8.07718 0 
9.1544 -8.07071 0 9.15306 -8.06422 0 9.15175 -8.0577 0 
9.15051 -8.05115 0 9.14928 -8.04458 0 9.14817 -8.03797 0 
9.14702 -8.03135 0 9.14592 -8.02471 0 9.14484 -8.01804 0 
9.14383 -8.01135 0 9.14282 -8.00463 0 9.14185 -7.9979 0 
9.14094 -7.99114 0 9.14004 -7.98435 0 9.13918 -7.97755 0 
9.13844 -7.9707 0 9.13764 -7.96385 0 9.13689 -7.95698 0 
9.13618 -7.95008 0 9.13549 -7.94317 0 9.13484 -7.93623 0 
9.13422 -7.92927 0 9.13365 -7.92229 0 9.13311 -7.91529 0 
9.13259 -7.90827 0 9.13217 -7.90121 0 9.13173 -7.89415 0 
9.1313 -7.88707 0 9.13093 -7.87996 0 9.13058 -7.87285 0 
9.13026 -7.8657 0 9.12998 -7.85855 0 9.12972 -7.85137 0 
9.12948 -7.84417 0 9.12931 -7.83695 0 9.12915 -7.82972 0 
9.12907 -7.82244 0 9.12897 -7.81517 0 9.1289 -7.80788 0 
9.12887 -7.80057 0 9.12884 -7.79324 0 9.12887 -7.7859 0 
9.12893 -7.77854 0 9.12899 -7.77117 0 9.12912 -7.76378 0 
9.12925 -7.75636 0 9.12946 -7.74891 0 9.12968 -7.74147 0 
9.12991 -7.73402 0 9.13016 -7.72654 0 9.13044 -7.71905 0 
9.13073 -7.71154 0 9.13108 -7.70402 0 9.13146 -7.69649 0 
9.13184 -7.68893 0 9.13225 -7.68136 0 9.13277 -7.67376 0 
9.13324 -7.66617 0 9.13374 -7.65855 0 9.13427 -7.65093 0 
9.13484 -7.6433 0 9.13539 -7.63564 0 9.13602 -7.62798 0 
9.13664 -7.62029 0 9.13731 -7.61261 0 9.138 -7.6049 0 
9.1387 -7.59718 0 9.13949 -7.58943 0 9.14026 -7.58168 0 
9.14102 -7.57392 0 9.14185 -7.56616 0 9.14267 -7.55837 0 
9.14352 -7.55058 0 9.14443 -7.54278 0 9.14533 -7.53496 0 
9.14624 -7.52713 0 9.1472 -7.51929 0 9.14824 -7.51142 0 
9.14923 -7.50356 0 9.15025 -7.49569 0 9.15129 -7.4878 0 
9.15236 -7.47991 0 9.15346 -7.47201 0 9.15459 -7.4641 0 
9.15571 -7.45617 0 9.15689 -7.44824 0 9.15807 -7.44029 0 
9.15927 -7.43234 0 9.16055 -7.42436 0 9.16181 -7.41639 0 
9.16307 -7.4084 0 9.16435 -7.40041 0 9.16568 -7.39242 0 
9.16701 -7.38441 0 9.16837 -7.3764 0 9.16972 -7.36837 0 
9.17113 -7.36034 0 9.17253 -7.3523 0 9.17401 -7.34423 0 
9.17548 -7.33617 0 9.17696 -7.32811 0 9.17846 -7.32004 0 
9.17996 -7.31196 0 9.18152 -7.30388 0 9.18307 -7.29578 0 
9.18465 -7.28769 0 9.18625 -7.27958 0 9.18784 -7.27146 0 
9.18947 -7.26335 0 9.19119 -7.2552 0 9.19283 -7.24707 0 
9.19453 -7.23893 0 9.19624 -7.23079 0 9.19795 -7.22264 0 
9.19969 -7.21448 0 9.20145 -7.20632 0 9.20323 -7.19816 0 
9.20503 -7.18999 0 9.20683 -7.18181 0 9.20872 -7.17361 0 
9.21056 -7.16542 0 9.21243 -7.15723 0 9.21432 -7.14904 0 
9.21621 -7.14084 0 9.21812 -7.13263 0 9.22005 -7.12442 0 
9.22201 -7.11621 0 9.22395 -7.108 0 9.22595 -7.09978 0 
9.22795 -7.09156 0 9.23002 -7.08331 0 9.23202 -7.07507 0 
9.23408 -7.06684 0 9.23614 -7.05861 0 9.23821 -7.05037 0 
9.24031 -7.04213 0 9.2424 -7.03388 0 9.24453 -7.02563 0 
9.24667 -7.01738 0 9.2488 -7.00913 0 9.25103 -7.00085 0 
9.2532 -6.99259 0 9.25541 -6.98433 0 9.25762 -6.97607 0 
9.25983 -6.96781 0 9.26208 -6.95955 0 9.26432 -6.95128 0 
9.26658 -6.94301 0 9.26888 -6.93474 0 9.27115 -6.92647 0 
9.27351 -6.91817 0 9.27582 -6.9099 0 9.27816 -6.90162 0 
9.28052 -6.89335 0 9.28287 -6.88507 0 9.28524 -6.8768 0 
9.28764 -6.86852 0 9.29002 -6.86024 0 9.29245 -6.85197 0 
9.29488 -6.84369 0 9.29729 -6.83541 0 9.29979 -6.82711 0 
9.30226 -6.81883 0 9.30473 -6.81055 0 9.30723 -6.80228 0 
9.30974 -6.79401 0 9.31224 -6.78573 0 9.31476 -6.77745 0 
9.3173 -6.76918 0 9.31983 -6.7609 0 9.32238 -6.75263 0 
9.32501 -6.74434 0 9.32759 -6.73607 0 9.33018 -6.7278 0 
9.33277 -6.71953 0 9.33539 -6.71126 0 9.33803 -6.703 0 
9.34065 -6.69473 0 9.34329 -6.68647 0 9.34596 -6.67821 0 
9.34861 -6.66995 0 9.35131 -6.6617 0 9.35406 -6.65343 0 
9.35673 -6.64517 0 9.35946 -6.63693 0 9.36217 -6.62868 0 
9.36491 -6.62044 0 9.36763 -6.61219 0 9.37041 -6.60395 0 
9.37316 -6.59572 0 9.37591 -6.58748 0 9.37871 -6.57925 0 
9.38154 -6.571 0 9.38434 -6.56278 0 9.38713 -6.55455 0 
9.38997 -6.54634 0 9.3928 -6.53812 0 9.39562 -6.5299 0 
9.39848 -6.5217 0 9.40133 -6.5135 0 9.4042 -6.5053 0 
9.40705 -6.49709 0 9.41 -6.48888 0 9.4129 -6.48069 0 
9.41578 -6.4725 0 9.4187 -6.46433 0 9.42162 -6.45615 0 
9.42452 -6.44797 0 9.42747 -6.43981 0 9.4304 -6.43164 0 
9.43335 -6.42348 0 9.43633 -6.41533 0 9.43929 -6.40718 0 
9.4423 -6.39901 0 9.44527 -6.39086 0 9.44828 -6.38273 0 
9.45128 -6.3746 0 9.45427 -6.36647 0 9.45729 -6.35835 0 
9.46032 -6.35023 0 9.46335 -6.34212 0 9.46637 -6.33401 0 
9.46941 -6.32591 0 9.47251 -6.31779 0 9.47559 -6.3097 0 
9.47864 -6.30162 0 9.48172 -6.29354 0 9.48481 -6.28547 0 
9.48789 -6.2774 0 9.49099 -6.26934 0 9.49407 -6.26127 0 
9.4972 -6.25323 0 9.50031 -6.24519 0 9.50341 -6.23714 0 
9.5066 -6.22909 0 9.50975 -6.22107 0 9.51289 -6.21305 0 
9.51603 -6.20503 0 9.51918 -6.19702 0 9.52235 -6.18903 0 
9.52551 -6.18103 0 9.52868 -6.17304 0 9.53187 -6.16506 0 
9.53505 -6.15708 0 9.53832 -6.1491 0 9.54149 -6.14113 0 
9.54471 -6.13318 0 9.54793 -6.12524 0 9.55115 -6.1173 0 
9.55437 -6.10936 0 9.55758 -6.10143 0 9.56083 -6.09352 0 
9.56406 -6.0856 0 9.5673 -6.0777 0 9.57062 -6.06978 0 
9.57388 -6.06189 0 9.57715 -6.05401 0 9.58043 -6.04613 0 
9.58369 -6.03826 0 9.58697 -6.0304 0 9.59027 -6.02255 0 
9.59355 -6.01471 0 9.59685 -6.00687 0 9.60016 -5.99904 0 
9.60346 -5.99121 0 9.60682 -5.98338 0 9.61015 -5.97557 0 
9.61346 -5.96777 0 9.61679 -5.95998 0 9.62014 -5.95221 0 
9.62347 -5.94443 0 9.62682 -5.93666 0 9.63015 -5.9289 0 
9.6335 -5.92115 0 9.63686 -5.91341 0 9.64029 -5.90565 0 
9.64366 -5.89793 0 9.64704 -5.89022 0 9.6504 -5.8825 0 
9.65379 -5.8748 0 9.65718 -5.86712 0 9.66056 -5.85943 0 
9.66396 -5.85175 0 9.66737 -5.84409 0 9.67077 -5.83643 0 
9.67418 -5.82878 0 9.67766 -5.82113 0 9.68107 -5.81349 0 
9.68451 -5.80588 0 9.68791 -5.79826 0 9.69134 -5.79065 0 
9.69479 -5.78306 0 9.69825 -5.77548 0 9.7017 -5.7679 0 
9.70512 -5.76033 0 9.70859 -5.75277 0 9.7121 -5.7452 0 
9.71555 -5.73766 0 9.71902 -5.73012 0 9.72249 -5.7226 0 
9.72598 -5.7151 0 9.72945 -5.70759 0 9.73292 -5.70009 0 
9.73643 -5.69261 0 9.73992 -5.68513 0 9.7434 -5.67766 0 
9.74697 -5.67019 0 9.75044 -5.66274 0 9.75396 -5.6553 0 
9.75747 -5.64787 0 9.761 -5.64046 0 9.7645 -5.63305 0 
9.76802 -5.62565 0 9.77156 -5.61826 0 9.77508 -5.61088 0 
9.77862 -5.60351 0 9.78214 -5.59614 0 9.78573 -5.58877 0 
9.78929 -5.58143 0 9.79282 -5.5741 0 9.79637 -5.56678 0 
9.79995 -5.55947 0 9.8035 -5.55217 0 9.80707 -5.54488 0 
9.81062 -5.53759 0 9.81419 -5.53032 0 9.81777 -5.52306 0 
9.82139 -5.51579 0 9.82497 -5.50855 0 9.82858 -5.50132 0 
9.83216 -5.4941 0 9.83573 -5.48688 0 9.83934 -5.47969 0 
9.84295 -5.4725 0 9.84654 -5.46531 0 9.85014 -5.45814 0 
9.85376 -5.45098 0 9.8574 -5.44383 0 9.86101 -5.43669 0 
9.86461 -5.42956 0 9.86824 -5.42244 0 9.87187 -5.41533 0 
9.87552 -5.40823 0 9.87915 -5.40114 0 9.88278 -5.39406 0 
9.88641 -5.38699 0 9.89005 -5.37993 0 9.89373 -5.37289 0 
9.89738 -5.36586 0 9.901 -5.35882 0 9.90469 -5.35181 0 
9.90835 -5.34481 0 9.912 -5.33781 0 9.91567 -5.33083 0 
9.91936 -5.32386 0 9.92303 -5.3169 0 9.92669 -5.30994 0 
9.93036 -5.303 0 9.93405 -5.29607 0 9.93775 -5.28915 0 
9.94143 -5.28224 0 9.94512 -5.27534 0 9.94884 -5.26846 0 
9.95254 -5.26158 0 9.95622 -5.25471 0 9.95991 -5.24785 0 
9.96363 -5.24101 0 9.96736 -5.23418 0 9.97107 -5.22736 0 
9.97477 -5.22054 0 9.97851 -5.21375 0 9.98221 -5.20695 0 
9.98596 -5.20018 0 9.98969 -5.19341 0 9.99341 -5.18665 0 
9.99713 -5.1799 0 10.0009 -5.17317 0 10.0046 -5.16644 0 
10.0084 -5.15973 0 10.0121 -5.15303 0 10.0159 -5.14634 0 
10.0196 -5.13966 0 10.0234 -5.13299 0 10.0271 -5.12633 0 
10.0309 -5.11968 0 10.0347 -5.11305 0 10.0384 -5.10642 0 
10.0422 -5.09981 0 10.046 -5.09321 0 10.0498 -5.08661 0 
10.0535 -5.08003 0 10.0573 -5.07346 0 10.0611 -5.06691 0 
10.0649 -5.06035 0 10.0687 -5.05382 0 10.0725 -5.0473 0 
10.0763 -5.04078 0 10.0801 -5.03428 0 10.0839 -5.02779 0 
10.0877 -5.02131 0 10.0915 -5.01484 0 10.0953 -5.00838 0 
10.0991 -5.00193 0 10.1029 -4.99549 0 10.1068 -4.98907 0 
10.1106 -4.98266 0 10.1144 -4.97625 0 10.1183 -4.96986 0 
10.1221 -4.96348 0 10.1259 -4.95711 0 10.1298 -4.95076 0 
10.1336 -4.94441 0 10.1375 -4.93808 0 10.1413 -4.93175 0 
10.1452 -4.92544 0 10.149 -4.91913 0 10.1529 -4.91284 0 
10.1568 -4.90657 0 10.1606 -4.9003 0 10.1645 -4.89404 0 
10.1684 -4.8878 0 10.1722 -4.88156 0 10.1761 -4.87534 0 
10.18 -4.86913 0 10.1839 -4.86293 0 10.1877 -4.85674 0 
10.1917 -4.85056 0 10.1955 -4.84439 0 10.1994 -4.83824 0 
10.2034 -4.8321 0 10.2072 -4.82596 0 10.2111 -4.81984 0 
10.2151 -4.81373 0 10.219 -4.80764 0 10.2229 -4.80155 0 
10.2268 -4.79548 0 10.2307 -4.78941 0 10.2347 -4.78336 0 
10.2386 -4.77731 0 10.2425 -4.77127 0 10.2464 -4.76526 0 
10.2504 -4.75925 0 10.2543 -4.75326 0 10.2583 -4.74727 0 
10.2622 -4.74129 0 10.2662 -4.73533 0 10.2701 -4.72938 0 
10.2741 -4.72344 0 10.278 -4.71751 0 10.282 -4.7116 0 
10.286 -4.70569 0 10.2899 -4.69979 0 10.2939 -4.69391 0 
10.2979 -4.68804 0 10.3019 -4.68217 0 10.3058 -4.67632 0 
10.3098 -4.67048 0 10.3138 -4.66465 0 10.3178 -4.65884 0 
10.3218 -4.65303 0 10.3258 -4.64724 0 10.3298 -4.64145 0 
10.3338 -4.63568 0 10.3378 -4.62992 0 10.3419 -4.62417 0 
10.3459 -4.61843 0 10.3499 -4.61271 0 10.3539 -4.60699 0 
10.358 -4.60129 0 10.362 -4.5956 0 10.366 -4.58991 0 
10.3701 -4.58424 0 10.3741 -4.57858 0 10.3781 -4.57293 0 
10.3822 -4.5673 0 10.3862 -4.56167 0 10.3903 -4.55606 0 
10.3944 -4.55045 0 10.3984 -4.54486 0 10.4025 -4.53928 0 
10.4066 -4.53371 0 10.4106 -4.52815 0 10.4147 -4.5226 0 
10.4188 -4.51707 0 10.4229 -4.51154 0 10.427 -4.50602 0 
10.4311 -4.50052 0 10.4352 -4.49503 0 10.4393 -4.48955 0 
10.4434 -4.48408 0 10.4475 -4.47861 0 10.4516 -4.47317 0 
10.4557 -4.46774 0 10.4598 -4.46231 0 10.4639 -4.45689 0 
10.4681 -4.45149 0 10.4722 -4.4461 0 10.4763 -4.44072 0 
10.4805 -4.43535 0 10.4846 -4.42999 0 10.4888 -4.42464 0 
10.4929 -4.4193 0 10.4971 -4.41398 0 10.5012 -4.40866 0 
10.5054 -4.40335 0 10.5096 -4.39807 0 10.5137 -4.39278 0 
10.5179 -4.38752 0 10.5221 -4.38225 0 10.5263 -4.37701 0 
10.5305 -4.37177 0 10.5347 -4.36654 0 10.5389 -4.36133 0 
10.5431 -4.35612 0 10.5473 -4.35092 0 10.5515 -4.34574 0 
10.5557 -4.34056 0 10.5599 -4.3354 0 10.5641 -4.33025 0 
10.5683 -4.32511 0 10.5726 -4.31999 0 10.5768 -4.31487 0 
10.581 -4.30977 0 10.5853 -4.30467 0 10.5895 -4.29959 0 
10.5938 -4.29451 0 10.598 -4.28944 0 10.6023 -4.28439 0 
10.6065 -4.27935 0 10.6108 -4.27432 0 10.6151 -4.2693 0 
10.6194 -4.26428 0 10.6236 -4.25928 0 10.6279 -4.2543 0 
10.6322 -4.24932 0 10.6365 -4.24436 0 10.6408 -4.2394 0 
10.6451 -4.23445 0 10.6494 -4.22952 0 10.6538 -4.22459 0 