# vtk DataFile Version 3.0
vtk output
ASCII
DATASET POLYDATA
POINTS 5000 float
4.05611 -32.1784 0 7.40236 -32.0047 0 8.79559 -31.9213 0 
9.86612 -31.8533 0 10.7691 -31.7936 0 11.5645 -31.7393 0 
12.2834 -31.6889 0 12.9441 -31.6417 0 13.5585 -31.5969 0 
14.135 -31.5542 0 14.6796 -31.5133 0 15.197 -31.474 0 
15.6908 -31.436 0 16.1636 -31.3993 0 16.618 -31.3636 0 
17.0558 -31.3289 0 17.4784 -31.2951 0 17.8874 -31.2622 0 
18.2839 -31.23 0 18.6688 -31.1986 0 19.0431 -31.1678 0 
19.4075 -31.1377 0 19.7627 -31.1082 0 20.1092 -31.0792 0 
20.4478 -31.0507 0 20.7787 -31.0227 0 21.1024 -30.9951 0 
21.4194 -30.968 0 21.7299 -30.9413 0 22.0345 -30.9151 0 
22.3332 -30.8892 0 22.6263 -30.8636 0 22.9144 -30.8384 0 
23.1973 -30.8135 0 23.4755 -30.789 0 23.749 -30.7647 0 
24.0181 -30.7407 0 24.2831 -30.7169 0 24.544 -30.6934 0 
24.8009 -30.6702 0 25.0541 -30.6472 0 25.3037 -30.6245 0 
25.5497 -30.602 0 25.7923 -30.5796 0 26.0317 -30.5575 0 
26.268 -30.5356 0 26.5012 -30.5139 0 26.7314 -30.4922 0 
26.9587 -30.4708 0 27.1831 -30.4496 0 27.405 -30.4285 0 
27.6242 -30.4076 0 27.8409 -30.3869 0 28.055 -30.3662 0 
28.2668 -30.3457 0 28.4762 -30.3254 0 28.6833 -30.3052 0 
28.8882 -30.285 0 29.0909 -30.2649 0 29.2915 -30.2451 0 
29.49 -30.2253 0 29.6866 -30.2056 0 29.8812 -30.186 0 
30.0738 -30.1665 0 30.2646 -30.1471 0 30.4535 -30.1278 0 
30.6407 -30.1086 0 30.8261 -30.0895 0 31.0098 -30.0703 0 
31.1918 -30.0513 0 31.3722 -30.0324 0 31.551 -30.0135 0 
31.7282 -29.9947 0 31.9039 -29.976 0 32.078 -29.9573 0 
32.2507 -29.9387 0 32.422 -29.9202 0 32.5918 -29.9017 0 
32.7602 -29.8832 0 32.9273 -29.8647 0 33.0931 -29.8463 0 
33.2576 -29.828 0 33.4207 -29.8097 0 33.5826 -29.7915 0 
33.7432 -29.7732 0 33.9027 -29.7551 0 34.0608 -29.7369 0 
34.2179 -29.7188 0 34.3738 -29.7007 0 34.5285 -29.6826 0 
34.6822 -29.6645 0 34.8347 -29.6465 0 34.9862 -29.6285 0 
35.1366 -29.6106 0 35.2859 -29.5926 0 35.4343 -29.5747 0 
35.5816 -29.5568 0 35.7279 -29.5389 0 35.8732 -29.521 0 
36.0177 -29.503 0 36.1611 -29.4851 0 36.3036 -29.4673 0 
36.4452 -29.4494 0 36.5858 -29.4316 0 36.7256 -29.4137 0 
36.8645 -29.3959 0 37.0026 -29.3781 0 37.1397 -29.3603 0 
37.2761 -29.3424 0 37.4116 -29.3246 0 37.5463 -29.3067 0 
37.6802 -29.2889 0 37.8133 -29.271 0 37.9456 -29.2532 0 
38.0772 -29.2354 0 38.208 -29.2175 0 38.338 -29.1997 0 
38.4673 -29.1818 0 38.5959 -29.164 0 38.7237 -29.1461 0 
38.8509 -29.1281 0 38.9773 -29.1102 0 39.103 -29.0923 0 
39.228 -29.0744 0 39.3524 -29.0565 0 39.4761 -29.0385 0 
39.5992 -29.0206 0 39.7216 -29.0026 0 39.8433 -28.9847 0 
39.9645 -28.9667 0 40.0849 -28.9487 0 40.2048 -28.9305 0 
40.3241 -28.9125 0 40.4428 -28.8944 0 40.5609 -28.8764 0 
40.6784 -28.8583 0 40.7952 -28.8401 0 40.9116 -28.822 0 
41.0273 -28.8039 0 41.1425 -28.7857 0 41.2571 -28.7675 0 
41.3712 -28.7492 0 41.4848 -28.7309 0 41.5978 -28.7127 0 
41.7102 -28.6944 0 41.8222 -28.6761 0 41.9336 -28.6578 0 
42.0446 -28.6394 0 42.155 -28.6211 0 42.2649 -28.6027 0 
42.3742 -28.5842 0 42.4832 -28.5657 0 42.5916 -28.5472 0 
42.6996 -28.5287 0 42.807 -28.5102 0 42.914 -28.4916 0 
43.0205 -28.4731 0 43.1266 -28.4545 0 43.2322 -28.4358 0 
43.3374 -28.4172 0 43.4422 -28.3985 0 43.5465 -28.3798 0 
43.6503 -28.361 0 43.7537 -28.3422 0 43.8567 -28.3234 0 
43.9592 -28.3046 0 44.0614 -28.2857 0 44.1631 -28.2668 0 
44.2644 -28.2479 0 44.3653 -28.229 0 44.4658 -28.21 0 
44.5659 -28.191 0 44.6656 -28.1719 0 44.7648 -28.1528 0 
44.8638 -28.1338 0 44.9623 -28.1146 0 45.0605 -28.0955 0 
45.1583 -28.0763 0 45.2556 -28.0571 0 45.3526 -28.0379 0 
45.4493 -28.0186 0 45.5456 -27.9993 0 45.6415 -27.98 0 
45.7371 -27.9605 0 45.8323 -27.9411 0 45.9272 -27.9217 0 
46.0216 -27.9022 0 46.1158 -27.8828 0 46.2096 -27.8632 0 
46.3031 -27.8437 0 46.3963 -27.8241 0 46.489 -27.8045 0 
46.5815 -27.7848 0 46.6737 -27.7651 0 46.7655 -27.7454 0 
46.857 -27.7256 0 46.9482 -27.7059 0 47.0391 -27.6861 0 
47.1296 -27.6662 0 47.2199 -27.6463 0 47.3097 -27.6264 0 
47.3994 -27.6065 0 47.4887 -27.5865 0 47.5777 -27.5665 0 
47.6665 -27.5464 0 47.7549 -27.5264 0 47.843 -27.5063 0 
47.9309 -27.4861 0 48.0184 -27.466 0 48.1057 -27.4458 0 
48.1926 -27.4256 0 48.2793 -27.4053 0 48.3657 -27.385 0 
48.4519 -27.3647 0 48.5377 -27.3443 0 48.6233 -27.3239 0 
48.7086 -27.3034 0 48.7936 -27.283 0 48.8783 -27.2625 0 
48.9628 -27.242 0 49.0471 -27.2215 0 49.1311 -27.2009 0 
49.2148 -27.1803 0 49.2982 -27.1596 0 49.3814 -27.1389 0 
49.4643 -27.1181 0 49.5471 -27.0974 0 49.6295 -27.0766 0 
49.7117 -27.0558 0 49.7937 -27.035 0 49.8754 -27.0141 0 
49.9568 -26.9932 0 50.038 -26.9723 0 50.119 -26.9513 0 
50.1997 -26.9304 0 50.2802 -26.9092 0 50.3604 -26.8882 0 
50.4405 -26.8671 0 50.5203 -26.846 0 50.5998 -26.8248 0 
50.6791 -26.8036 0 50.7583 -26.7824 0 50.8371 -26.7612 0 
50.9157 -26.7399 0 50.9942 -26.7186 0 51.0724 -26.6971 0 
51.1504 -26.6758 0 51.2281 -26.6544 0 51.3057 -26.6329 0 
51.3831 -26.6115 0 51.4601 -26.59 0 51.5371 -26.5685 0 
51.6137 -26.5469 0 51.6902 -26.5253 0 51.7665 -26.5037 0 
51.8426 -26.4821 0 51.9185 -26.4603 0 51.9941 -26.4386 0 
52.0696 -26.4168 0 52.1448 -26.3951 0 52.2198 -26.3733 0 
52.2947 -26.3514 0 52.3693 -26.3296 0 52.4438 -26.3077 0 
52.5181 -26.2858 0 52.5921 -26.2638 0 52.666 -26.2418 0 
52.7396 -26.2198 0 52.8131 -26.1977 0 52.8864 -26.1757 0 
52.9595 -26.1536 0 53.0324 -26.1315 0 53.1051 -26.1093 0 
53.1777 -26.0871 0 53.2501 -26.0649 0 53.3222 -26.0427 0 
53.3942 -26.0204 0 53.466 -25.998 0 53.5376 -25.9757 0 
53.6091 -25.9534 0 53.6804 -25.931 0 53.7514 -25.9086 0 
53.8223 -25.8861 0 53.893 -25.8637 0 53.9636 -25.8412 0 
54.034 -25.8187 0 54.1042 -25.7961 0 54.1742 -25.7734 0 
54.2441 -25.7508 0 54.3137 -25.7282 0 54.3833 -25.7056 0 
54.4526 -25.6829 0 54.5218 -25.6602 0 54.5909 -25.6374 0 
54.6598 -25.6147 0 54.7284 -25.5919 0 54.7969 -25.5691 0 
54.8653 -25.5461 0 54.9335 -25.5232 0 55.0015 -25.5003 0 
55.0694 -25.4774 0 55.1371 -25.4545 0 55.2047 -25.4315 0 
55.272 -25.4085 0 55.3393 -25.3855 0 55.4063 -25.3624 0 
55.4733 -25.3393 0 55.5401 -25.3162 0 55.6067 -25.293 0 
55.6732 -25.2699 0 55.7395 -25.2467 0 55.8056 -25.2235 0 
55.8717 -25.2002 0 55.9375 -25.177 0 56.0032 -25.1537 0 
56.0688 -25.1304 0 56.1341 -25.1071 0 56.1994 -25.0837 0 
56.2645 -25.0602 0 56.3295 -25.0368 0 56.3943 -25.0134 0 
56.459 -24.99 0 56.5235 -24.9665 0 56.5879 -24.943 0 
56.6522 -24.9195 0 56.7162 -24.8959 0 56.7802 -24.8724 0 
56.844 -24.8488 0 56.9077 -24.8251 0 56.9712 -24.8014 0 
57.0346 -24.7778 0 57.0979 -24.7541 0 57.161 -24.7304 0 
57.2239 -24.7066 0 57.2868 -24.6829 0 57.3495 -24.6591 0 
57.4121 -24.6353 0 57.4745 -24.6115 0 57.5368 -24.5877 0 
57.599 -24.5637 0 57.661 -24.5398 0 57.7229 -24.5159 0 
57.7846 -24.492 0 57.8463 -24.468 0 57.9078 -24.4441 0 
57.9692 -24.4201 0 58.0304 -24.3961 0 58.0915 -24.372 0 
58.1525 -24.348 0 58.2133 -24.3238 0 58.2741 -24.2997 0 
58.3347 -24.2756 0 58.3951 -24.2514 0 58.4555 -24.2273 0 
58.5157 -24.2031 0 58.5757 -24.1789 0 58.6357 -24.1547 0 
58.6955 -24.1304 0 58.7553 -24.1062 0 58.8148 -24.0819 0 
58.8743 -24.0575 0 58.9337 -24.0331 0 58.9929 -24.0088 0 
59.052 -23.9844 0 59.1109 -23.9601 0 59.1699 -23.9357 0 
59.2286 -23.9112 0 59.2872 -23.8868 0 59.3457 -23.8624 0 
59.4041 -23.8379 0 59.4623 -23.8133 0 59.5205 -23.7888 0 
59.5785 -23.7642 0 59.6364 -23.7397 0 59.6941 -23.7151 0 
59.7518 -23.6905 0 59.8093 -23.6659 0 59.8668 -23.6413 0 
59.9241 -23.6167 0 59.9813 -23.592 0 60.0384 -23.5673 0 
60.0953 -23.5425 0 60.1523 -23.5178 0 60.209 -23.4931 0 
60.2656 -23.4683 0 60.3221 -23.4436 0 60.3785 -23.4188 0 
60.4348 -23.394 0 60.491 -23.3692 0 60.5471 -23.3444 0 
60.603 -23.3195 0 60.6589 -23.2945 0 60.7146 -23.2697 0 
60.7703 -23.2448 0 60.8258 -23.2198 0 60.8812 -23.1949 0 
60.9365 -23.17 0 60.9917 -23.145 0 61.0468 -23.12 0 
61.1017 -23.095 0 61.1566 -23.07 0 61.2114 -23.0449 0 
61.266 -23.0199 0 61.3206 -22.9948 0 61.3751 -22.9697 0 
61.4293 -22.9446 0 61.4836 -22.9195 0 61.5377 -22.8944 0 
61.5917 -22.8693 0 61.6457 -22.8441 0 61.6994 -22.819 0 
61.7531 -22.7938 0 61.8068 -22.7685 0 61.8603 -22.7433 0 
61.9136 -22.7181 0 61.9669 -22.6928 0 62.0201 -22.6676 0 
62.0732 -22.6423 0 62.1262 -22.6171 0 62.1791 -22.5918 0 
62.2319 -22.5665 0 62.2846 -22.5412 0 62.3372 -22.5157 0 
62.3896 -22.4904 0 62.442 -22.465 0 62.4943 -22.4396 0 
62.5465 -22.4143 0 62.5986 -22.3889 0 62.6505 -22.3634 0 
62.7025 -22.338 0 62.7542 -22.3126 0 62.8059 -22.2871 0 
62.8575 -22.2617 0 62.909 -22.2361 0 62.9604 -22.2106 0 
63.0117 -22.1851 0 63.0629 -22.1596 0 63.114 -22.1341 0 
63.165 -22.1085 0 63.2159 -22.083 0 63.2667 -22.0574 0 
63.3174 -22.0318 0 63.3681 -22.0063 0 63.4186 -21.9806 0 
63.469 -21.9549 0 63.5193 -21.9293 0 63.5696 -21.9037 0 
63.6198 -21.8781 0 63.6698 -21.8524 0 63.7198 -21.8267 0 
63.7696 -21.8011 0 63.8194 -21.7754 0 63.8691 -21.7497 0 
63.9187 -21.7239 0 63.9682 -21.6981 0 64.0176 -21.6724 0 
64.0669 -21.6467 0 64.1161 -21.6209 0 64.1653 -21.5951 0 
64.2142 -21.5694 0 64.2632 -21.5436 0 64.3121 -21.5178 0 
64.3608 -21.492 0 64.4095 -21.4662 0 64.4581 -21.4402 0 
64.5066 -21.4144 0 64.555 -21.3886 0 64.6033 -21.3627 0 
64.6515 -21.3368 0 64.6996 -21.311 0 64.7477 -21.2851 0 
64.7956 -21.2592 0 64.8435 -21.2333 0 64.8913 -21.2074 0 
64.9389 -21.1814 0 64.9866 -21.1554 0 65.0341 -21.1295 0 
65.0815 -21.1035 0 65.1288 -21.0776 0 65.1761 -21.0516 0 
65.2232 -21.0257 0 65.2703 -20.9997 0 65.3173 -20.9737 0 
65.3642 -20.9477 0 65.411 -20.9217 0 65.4577 -20.8955 0 
65.5043 -20.8695 0 65.5509 -20.8435 0 65.5973 -20.8175 0 
65.6437 -20.7914 0 65.6901 -20.7653 0 65.7362 -20.7393 0 
65.7824 -20.7132 0 65.8284 -20.6871 0 65.8744 -20.661 0 
65.9203 -20.6348 0 65.966 -20.6087 0 66.0118 -20.5826 0 
66.0573 -20.5565 0 66.1029 -20.5304 0 66.1483 -20.5042 0 
66.1936 -20.4781 0 66.239 -20.4519 0 66.2842 -20.4258 0 
66.3293 -20.3996 0 66.3743 -20.3735 0 66.4192 -20.3472 0 
66.4642 -20.321 0 66.5089 -20.2948 0 66.5536 -20.2686 0 
66.5982 -20.2424 0 66.6428 -20.2162 0 66.6872 -20.19 0 
66.7316 -20.1638 0 66.7759 -20.1375 0 66.8201 -20.1113 0 
[...]
POINT_DATA 5000
VECTORS velocity double
13.4619 -7.78712 0 13.822 -7.23825 0 13.9986 -7.01477 0 
14.1416 -6.84718 0 14.2659 -6.70944 0 14.3771 -6.5914 0 
14.4784 -6.48779 0 14.5717 -6.39534 0 14.6583 -6.312 0 
14.739 -6.23629 0 14.8146 -6.16712 0 14.8855 -6.10364 0 
14.9522 -6.0452 0 15.015 -5.99127 0 15.0742 -5.9414 0 
15.1301 -5.89522 0 15.1829 -5.85247 0 15.2327 -5.8128 0 
15.2798 -5.77601 0 15.3243 -5.7419 0 15.3662 -5.71028 0 
15.4058 -5.681 0 15.4432 -5.65391 0 15.4784 -5.62889 0 
15.5115 -5.60579 0 15.5427 -5.58453 0 15.5719 -5.56503 0 
15.5994 -5.54716 0 15.625 -5.53083 0 15.649 -5.51598 0 
15.6714 -5.50255 0 15.6922 -5.49047 0 15.7115 -5.47965 0 
15.7293 -5.47007 0 15.7457 -5.46165 0 15.7608 -5.45434 0 
15.7745 -5.44811 0 15.7869 -5.44292 0 15.7981 -5.43867 0 
15.8081 -5.43537 0 15.8169 -5.43297 0 15.8246 -5.43143 0 
15.8313 -5.43072 0 15.8368 -5.4308 0 15.8413 -5.43164 0 
15.8449 -5.43321 0 15.8474 -5.43548 0 15.849 -5.43846 0 
15.8497 -5.44206 0 15.8495 -5.44629 0 15.8485 -5.45112 0 
15.8466 -5.45652 0 15.8439 -5.46248 0 15.8404 -5.46898 0 
15.8362 -5.47599 0 15.8311 -5.48349 0 15.8254 -5.49147 0 
15.819 -5.4999 0 15.8118 -5.5088 0 15.804 -5.5181 0 
15.7956 -5.52781 0 15.7865 -5.53791 0 15.7768 -5.54839 0 
15.7665 -5.55923 0 15.7557 -5.57042 0 15.7442 -5.58194 0 
15.7322 -5.59379 0 15.7197 -5.60594 0 15.7067 -5.61841 0 
15.6931 -5.63115 0 15.6791 -5.64416 0 15.6646 -5.65744 0 
15.6496 -5.67097 0 15.6341 -5.68474 0 15.6183 -5.69875 0 
15.602 -5.71297 0 15.5852 -5.72742 0 15.5681 -5.74207 0 
15.5506 -5.75691 0 15.5327 -5.77195 0 15.5144 -5.78716 0 
15.4957 -5.80255 0 15.4767 -5.8181 0 15.4574 -5.8338 0 
15.4377 -5.84965 0 15.4177 -5.86564 0 15.3974 -5.88177 0 
15.3768 -5.89802 0 15.3559 -5.91441 0 15.3347 -5.93091 0 
15.3132 -5.94752 0 15.2915 -5.96422 0 15.2695 -5.98103 0 
15.2472 -5.99793 0 15.2247 -6.01491 0 15.2019 -6.03199 0 
15.1789 -6.04913 0 15.1557 -6.06634 0 15.1323 -6.08362 0 
15.1087 -6.10098 0 15.0848 -6.11839 0 15.0607 -6.13584 0 
15.0365 -6.15335 0 15.012 -6.1709 0 14.9874 -6.18849 0 
14.9626 -6.20612 0 14.9377 -6.22379 0 14.9125 -6.24147 0 
14.8872 -6.25919 0 14.8618 -6.27693 0 14.8362 -6.2947 0 
14.8105 -6.31247 0 14.7846 -6.33025 0 14.7586 -6.34804 0 
14.7325 -6.36584 0 14.7062 -6.38365 0 14.6798 -6.40145 0 
14.6533 -6.41925 0 14.6267 -6.43705 0 14.6 -6.45483 0 
14.5732 -6.47261 0 14.5463 -6.49037 0 14.5193 -6.50811 0 
14.4922 -6.52583 0 14.465 -6.54354 0 14.4377 -6.56122 0 
14.4104 -6.57888 0 14.383 -6.59651 0 14.3555 -6.6141 0 
14.3279 -6.63168 0 14.3003 -6.6492 0 14.2726 -6.66671 0 
14.2449 -6.68418 0 14.2171 -6.7016 0 14.1892 -6.71898 0 
14.1613 -6.73632 0 14.1334 -6.75361 0 14.1054 -6.77086 0 
14.0774 -6.78805 0 14.0493 -6.8052 0 14.0212 -6.82231 0 
13.9931 -6.83935 0 13.9649 -6.85635 0 13.9367 -6.87329 0 
13.9085 -6.89017 0 13.8803 -6.907 0 13.852 -6.92376 0 
13.8238 -6.94047 0 13.7955 -6.95712 0 13.7672 -6.97369 0 
13.7389 -6.99021 0 13.7106 -7.00667 0 13.6823 -7.02304 0 
13.654 -7.03937 0 13.6256 -7.05562 0 13.5973 -7.0718 0 
13.569 -7.08791 0 13.5407 -7.10395 0 13.5124 -7.11992 0 
13.4841 -7.13582 0 13.4558 -7.15165 0 13.4275 -7.1674 0 
13.3992 -7.18308 0 13.371 -7.19867 0 13.3428 -7.21419 0 
13.3146 -7.22963 0 13.2864 -7.245 0 13.2582 -7.2603 0 
13.23 -7.27549 0 13.2019 -7.29063 0 13.1738 -7.30567 0 
13.1457 -7.32065 0 13.1177 -7.33552 0 13.0897 -7.35032 0 
13.0617 -7.36504 0 13.0338 -7.37969 0 13.0058 -7.39424 0 
12.978 -7.40871 0 12.9501 -7.42309 0 12.9223 -7.43738 0 
12.8946 -7.45159 0 12.8668 -7.46572 0 12.8392 -7.47975 0 
12.8115 -7.49371 0 12.7839 -7.50757 0 12.7564 -7.52136 0 
12.7289 -7.53503 0 12.7014 -7.54864 0 12.674 -7.56215 0 
12.6466 -7.57557 0 12.6193 -7.58891 0 12.5921 -7.60215 0 
12.5648 -7.6153 0 12.5377 -7.62837 0 12.5106 -7.64134 0 
12.4835 -7.65422 0 12.4565 -7.66702 0 12.4296 -7.67972 0 
12.4027 -7.69233 0 12.3759 -7.70485 0 12.3491 -7.71727 0 
12.3224 -7.72962 0 12.2957 -7.74186 0 12.2692 -7.75401 0 
12.2426 -7.76607 0 12.2162 -7.77804 0 12.1898 -7.78991 0 
12.1634 -7.8017 0 12.1372 -7.81338 0 12.1109 -7.82499 0 
12.0848 -7.83649 0 12.0587 -7.84791 0 12.0327 -7.85923 0 
12.0067 -7.87046 0 11.9809 -7.88158 0 11.955 -7.89263 0 
11.9293 -7.90358 0 11.9036 -7.91443 0 11.878 -7.9252 0 
11.8525 -7.93586 0 11.827 -7.94645 0 11.8016 -7.95693 0 
11.7763 -7.96733 0 11.751 -7.97763 0 11.7259 -7.98783 0 
11.7008 -7.99794 0 11.6757 -8.00796 0 11.6507 -8.01789 0 
11.6258 -8.02773 0 11.601 -8.03747 0 11.5763 -8.04713 0 
11.5516 -8.05668 0 11.527 -8.06615 0 11.5025 -8.07553 0 
11.478 -8.0848 0 11.4537 -8.09399 0 11.4294 -8.10308 0 
11.4052 -8.11209 0 11.381 -8.121 0 11.357 -8.12982 0 
11.333 -8.13855 0 11.3091 -8.14719 0 11.2853 -8.15574 0 
11.2615 -8.16419 0 11.2378 -8.17257 0 11.2143 -8.18082 0 
11.1908 -8.189 0 11.1673 -8.1971 0 11.144 -8.20511 0 
11.1207 -8.21302 0 11.0975 -8.22084 0 11.0744 -8.22858 0 
11.0514 -8.23621 0 11.0284 -8.24377 0 11.0055 -8.25123 0 
10.9827 -8.2586 0 10.96 -8.26588 0 10.9374 -8.27307 0 
10.9148 -8.28018 0 10.8923 -8.2872 0 10.87 -8.29413 0 
10.8477 -8.30097 0 10.8254 -8.30772 0 10.8033 -8.31439 0 
10.7812 -8.32097 0 10.7592 -8.32746 0 10.7374 -8.33385 0 
10.7155 -8.34017 0 10.6938 -8.3464 0 10.6722 -8.35253 0 
10.6506 -8.3586 0 10.6291 -8.36456 0 10.6077 -8.37045 0 
10.5863 -8.37625 0 10.5651 -8.38197 0 10.5439 -8.38759 0 
10.5228 -8.39313 0 10.5019 -8.39858 0 10.481 -8.40395 0 
10.4601 -8.40924 0 10.4394 -8.41445 0 10.4187 -8.41957 0 
10.3981 -8.4246 0 10.3776 -8.42956 0 10.3572 -8.43443 0 
10.3368 -8.43923 0 10.3166 -8.44393 0 10.2965 -8.44853 0 
10.2764 -8.45308 0 10.2564 -8.45754 0 10.2364 -8.46192 0 
10.2166 -8.46621 0 10.1968 -8.47043 0 10.1771 -8.47457 0 
10.1575 -8.47862 0 10.138 -8.48259 0 10.1186 -8.48648 0 
10.0993 -8.49028 0 10.08 -8.49403 0 10.0608 -8.49768 0 
10.0417 -8.50125 0 10.0227 -8.50475 0 10.0037 -8.50817 0 
9.9849 -8.51151 0 9.96612 -8.51477 0 9.94744 -8.51795 0 
9.92879 -8.52107 0 9.91028 -8.5241 0 9.89186 -8.52704 0 
9.87349 -8.52992 0 9.8552 -8.53272 0 9.83701 -8.53544 0 
9.81886 -8.53809 0 9.80081 -8.54067 0 9.78284 -8.54317 0 
9.76496 -8.54559 0 9.74718 -8.54794 0 9.72945 -8.55022 0 
9.71185 -8.5524 0 9.6943 -8.55453 0 9.6768 -8.55659 0 
9.65939 -8.55857 0 9.64208 -8.56048 0 9.62485 -8.56231 0 
9.60768 -8.56408 0 9.5906 -8.56577 0 9.57361 -8.56739 0 
9.55667 -8.56894 0 9.53988 -8.5704 0 9.52312 -8.57181 0 
9.50643 -8.57314 0 9.48982 -8.57441 0 9.47327 -8.57561 0 
9.45685 -8.57673 0 9.44048 -8.57779 0 9.42417 -8.57878 0 
9.40795 -8.5797 0 9.39183 -8.58055 0 9.37575 -8.58134 0 
9.35982 -8.58204 0 9.34393 -8.58268 0 9.3281 -8.58326 0 
9.31237 -8.58377 0 9.29669 -8.58422 0 9.2811 -8.5846 0 
9.26557 -8.58492 0 9.25012 -8.58517 0 9.23477 -8.58534 0 
9.21948 -8.58546 0 9.20433 -8.5855 0 9.18919 -8.58548 0 
9.1741 -8.58541 0 9.15915 -8.58527 0 9.14422 -8.58507 0 
9.12941 -8.5848 0 9.11466 -8.58446 0 9.09996 -8.58407 0 
9.08536 -8.58361 0 9.07082 -8.5831 0 9.05637 -8.58251 0 
9.04202 -8.58186 0 9.02772 -8.58115 0 9.01348 -8.58039 0 
8.99933 -8.57956 0 8.98524 -8.57868 0 8.97119 -8.57773 0 
8.95725 -8.57673 0 8.9434 -8.57566 0 8.92961 -8.57453 0 
8.91586 -8.57335 0 8.90227 -8.57209 0 8.88868 -8.57079 0 
8.87519 -8.56943 0 8.86174 -8.56801 0 8.8484 -8.56653 0 
8.83511 -8.565 0 8.82188 -8.56341 0 8.80874 -8.56177 0 
8.79566 -8.56007 0 8.78263 -8.55831 0 8.7697 -8.5565 0 
8.7569 -8.5546 0 8.74408 -8.55268 0 8.73135 -8.5507 0 
8.71872 -8.54867 0 8.70614 -8.54658 0 8.69362 -8.54444 0 
8.68115 -8.54224 0 8.66878 -8.53999 0 8.65646 -8.53769 0 
8.64423 -8.53533 0 8.63211 -8.5329 0 8.62 -8.53044 0 
8.60794 -8.52793 0 8.59597 -8.52537 0 8.5841 -8.52275 0 
8.57225 -8.52008 0 8.56049 -8.51736 0 8.54878 -8.5146 0 
8.53717 -8.51178 0 8.52557 -8.50891 0 8.51411 -8.50597 0 
8.5027 -8.503 0 8.49131 -8.49998 0 8.48001 -8.49692 0 
8.4688 -8.4938 0 8.45762 -8.49064 0 8.44652 -8.48743 0 
8.43547 -8.48417 0 8.42448 -8.48086 0 8.41358 -8.47751 0 
8.40275 -8.47411 0 8.392 -8.47064 0 8.38127 -8.46715 0 
8.37063 -8.46361 0 8.36004 -8.46002 0 8.34951 -8.45639 0 
8.33903 -8.45271 0 8.32864 -8.44899 0 8.31827 -8.44523 0 
8.30799 -8.44142 0 8.2978 -8.43756 0 8.28768 -8.43364 0 
8.2776 -8.4297 0 8.26757 -8.42571 0 8.25759 -8.42169 0 
8.24767 -8.41762 0 8.23784 -8.4135 0 8.22807 -8.40934 0 
8.2183 -8.40515 0 8.20867 -8.40091 0 8.19905 -8.39662 0 
8.18949 -8.3923 0 8.18006 -8.38792 0 8.17064 -8.38352 0 
8.16127 -8.37907 0 8.15195 -8.37458 0 8.14272 -8.37006 0 
8.13352 -8.3655 0 8.12439 -8.36089 0 8.11532 -8.35625 0 
8.1063 -8.35157 0 8.09734 -8.34685 0 8.0885 -8.34207 0 
8.07964 -8.33727 0 8.07087 -8.33244 0 8.06215 -8.32757 0 
8.05344 -8.32266 0 8.04486 -8.31771 0 8.03629 -8.31273 0 
8.02778 -8.30771 0 8.01935 -8.30266 0 8.01094 -8.29756 0 
8.00265 -8.29242 0 7.99438 -8.28725 0 7.98615 -8.28206 0 
7.97798 -8.27682 0 7.96986 -8.27155 0 7.96178 -8.26625 0 
7.9538 -8.26092 0 7.94582 -8.25555 0 7.93794 -8.25014 0 
7.93011 -8.24471 0 7.92228 -8.23923 0 7.91459 -8.23371 0 
7.90691 -8.22818 0 7.89928 -8.2226 0 7.89168 -8.217 0 
7.88419 -8.21137 0 7.87669 -8.20571 0 7.86926 -8.20001 0 
7.86191 -8.19428 0 7.85457 -8.18852 0 7.84731 -8.18273 0 
7.84015 -8.17689 0 7.83296 -8.17104 0 7.82585 -8.16516 0 
7.81878 -8.15925 0 7.81178 -8.15331 0 7.80481 -8.14734 0 
7.7979 -8.14134 0 7.79103 -8.13531 0 7.78421 -8.12925 0 
7.77743 -8.12317 0 7.77071 -8.11706 0 7.76412 -8.11089 0 
7.75749 -8.10473 0 7.75091 -8.09853 0 7.74441 -8.09231 0 
7.73792 -8.08605 0 7.73149 -8.07977 0 7.72513 -8.07347 0 
7.71878 -8.06714 0 7.71252 -8.06078 0 7.70627 -8.0544 0 
7.70011 -8.04797 0 7.69398 -8.04153 0 7.68787 -8.03507 0 
7.68184 -8.02859 0 7.67582 -8.02207 0 7.66988 -8.01554 0 
7.66398 -8.00898 0 7.6581 -8.0024 0 7.65226 -7.99579 0 
7.6465 -7.98916 0 7.64076 -7.9825 0 7.63514 -7.9758 0 
7.62948 -7.9691 0 7.62391 -7.96238 0 7.61834 -7.95563 0 
7.61286 -7.94886 0 7.60738 -7.94206 0 7.60195 -7.93525 0 
7.59659 -7.92842 0 7.59125 -7.92156 0 7.58595 -7.91468 0 
7.58078 -7.90775 0 7.57557 -7.90083 0 7.57041 -7.89389 0 
7.56528 -7.88692 0 7.5602 -7.87994 0 7.55516 -7.87293 0 
7.55017 -7.86591 0 7.54523 -7.85887 0 7.54032 -7.8518 0 
7.53545 -7.84472 0 7.53069 -7.83759 0 7.52591 -7.83047 0 
7.52114 -7.82333 0 7.51645 -7.81617 0 7.5118 -7.80899 0 
7.50716 -7.80179 0 7.5026 -7.79458 0 7.49804 -7.78734 0 
7.49353 -7.78009 0 7.48909 -7.77283 0 7.48466 -7.76554 0 
7.48032 -7.75821 0 7.47598 -7.75089 0 7.47167 -7.74356 0 
7.46741 -7.7362 0 7.46315 -7.72883 0 7.45897 -7.72144 0 
7.45483 -7.71404 0 7.45069 -7.70662 0 7.44664 -7.69919 0 
7.44259 -7.69174 0 7.43862 -7.68425 0 7.43469 -7.67677 0 
7.43076 -7.66928 0 7.42687 -7.66177 0 7.42302 -7.65424 0 
7.41918 -7.6467 0 7.41541 -7.63915 0 7.41168 -7.63158 0 
7.40796 -7.624 0 7.40428 -7.6164 0 7.40071 -7.60877 0 
7.39711 -7.60115 0 7.39354 -7.59351 0 7.39002 -7.58586 0 
7.38654 -7.5782 0 7.38305 -7.57052 0 7.37965 -7.56284 0 
7.37625 -7.55513 0 7.37291 -7.54743 0 7.3696 -7.5397 0 
7.3663 -7.53196 0 7.3631 -7.52419 0 7.35989 -7.51643 0 
7.35668 -7.50866 0 7.35355 -7.50088 0 7.35042 -7.49308 0 
7.34733 -7.48528 0 7.34432 -7.47746 0 7.3413 -7.46964 0 
7.33828 -7.4618 0 7.33534 -7.45395 0 7.33249 -7.44607 0 
7.32959 -7.4382 0 7.32673 -7.43032 0 7.3239 -7.42243 0 
7.32111 -7.41454 0 7.31836 -7.40663 0 7.31565 -7.39872 0 
7.31294 -7.39079 0 7.3103 -7.38286 0 7.30766 -7.37492 0 
7.30506 -7.36696 0 7.30254 -7.35898 0 7.30001 -7.35102 0 
7.29748 -7.34303 0 7.29499 -7.33505 0 7.29258 -7.32706 0 
7.29015 -7.31905 0 7.28777 -7.31105 0 7.28539 -7.30303 0 
7.28308 -7.29501 0 7.28077 -7.28697 0 7.27854 -7.27891 0 
7.27631 -7.27087 0 7.2741 -7.26281 0 7.27194 -7.25476 0 
7.26977 -7.24669 0 7.26767 -7.23862 0 7.26558 -7.23054 0 
7.26352 -7.22246 0 7.26149 -7.21437 0 7.25946 -7.20627 0 
7.25747 -7.19817 0 7.25559 -7.19004 0 7.25364 -7.18192 0 
7.25175 -7.17381 0 7.24989 -7.16569 0 7.24804 -7.15755 0 
7.24622 -7.14942 0 7.24444 -7.14128 0 7.24268 -7.13314 0 
7.24096 -7.12499 0 7.23925 -7.11683 0 7.23761 -7.10865 0 
7.23596 -7.10049 0 7.23435 -7.09233 0 7.23276 -7.08416 0 
7.23118 -7.07598 0 7.22963 -7.06781 0 7.22811 -7.05963 0 
7.22662 -7.05144 0 7.22513 -7.04325 0 7.22372 -7.03506 0 
7.2223 -7.02687 0 7.22097 -7.01865 0 7.21957 -7.01044 0 
7.21825 -7.00225 0 7.21693 -6.99404 0 7.21564 -6.98583 0 
7.21438 -6.97762 0 7.21313 -6.9694 0 7.21193 -6.96119 0 
7.21073 -6.95297 0 7.20954 -6.94475 0 7.20845 -6.9365 0 
7.20732 -6.92828 0 7.20625 -6.92006 0 7.20519 -6.91183 0 
7.20411 -6.9036 0 7.20311 -6.89537 0 7.20211 -6.88714 0 
7.20112 -6.87891 0 7.20018 -6.87067 0 7.19923 -6.86243 0 
7.19837 -6.85418 0 7.19748 -6.84594 0 7.19663 -6.8377 0 
7.1958 -6.82947 0 7.19498 -6.82123 0 7.19419 -6.81299 0 
7.19342 -6.80475 0 7.19266 -6.79651 0 7.19195 -6.78828 0 
7.19125 -6.78004 0 7.19054 -6.77179 0 7.18994 -6.76353 0 
7.1893 -6.75529 0 7.18868 -6.74706 0 7.1881 -6.73882 0 
7.18754 -6.73059 0 7.18698 -6.72235 0 7.18645 -6.71411 0 
7.18595 -6.70588 0 7.18544 -6.69764 0 7.18497 -6.68941 0 
7.18457 -6.68116 0 7.18416 -6.67293 0 7.18375 -6.6647 0 
7.18335 -6.65647 0 7.183 -6.64824 0 7.18267 -6.64002 0 
7.18234 -6.6318 0 7.18203 -6.62358 0 7.18176 -6.61536 0 
7.18148 -6.60714 0 7.18127 -6.59893 0 7.1811 -6.59069 0 
7.18087 -6.58248 0 7.18071 -6.57427 0 7.18054 -6.56607 0 
7.18041 -6.55786 0 7.18027 -6.54966 0 7.18019 -6.54147 0 
7.1801 -6.53327 0 7.18002 -6.52507 0 7.17999 -6.51689 0 
7.18 -6.50867 0 7.18 -6.50049 0 7.17999 -6.4923 0 
7.18005 -6.48413 0 7.1801 -6.47596 0 7.18013 -6.46778 0 
7.18024 -6.45961 0 7.18035 -6.45145 0 7.18048 -6.44329 0 
7.1806 -6.43513 0 7.18083 -6.42696 0 7.18101 -6.41881 0 
7.18118 -6.41065 0 7.18142 -6.40252 0 7.18165 -6.39438 0 
7.18187 -6.38624 0 7.18216 -6.37811 0 7.18243 -6.36998 0 
7.18274 -6.36186 0 7.18307 -6.35375 0 7.18341 -6.34563 0 
7.18381 -6.3375 0 7.18416 -6.32939 0 7.18457 -6.3213 0 
7.18497 -6.3132 0 7.18537 -6.3051 0 7.18583 -6.29702 0 
7.18629 -6.28894 0 7.18677 -6.28086 0 7.18724 -6.27279 0 
7.18774 -6.26472 0 7.18832 -6.25664 0 7.18888 -6.24859 0 
7.18942 -6.24053 0 7.18999 -6.23249 0 7.1906 -6.22445 0 
7.1912 -6.21642 0 7.19182 -6.20839 0 7.19244 -6.20036 0 
7.19312 -6.19235 0 7.19379 -6.18433 0 7.19445 -6.17632 0 
7.19522 -6.1683 0 7.19594 -6.1603 0 7.19668 -6.15232 0 
7.19742 -6.14433 0 7.19818 -6.13635 0 7.19897 -6.12838 0 
7.19975 -6.12041 0 7.20056 -6.11245 0 7.20139 -6.1045 0 
7.20222 -6.09655 0 7.20316 -6.0886 0 7.204 -6.08065 0 
7.20491 -6.07273 0 7.20581 -6.06481 0 7.20674 -6.0569 0 
7.20766 -6.04898 0 7.20859 -6.04108 0 7.20956 -6.03319 0 
7.21052 -6.02529 0 7.21151 -6.01741 0 7.21257 -6.00952 0 
7.21361 -6.00165 0 7.21464 -5.99379 0 7.2157 -5.98594 0 
7.21675 -5.97809 0 7.21783 -5.97025 0 7.21893 -5.96242 0 
7.22002 -5.95459 0 7.22115 -5.94677 0 7.22229 -5.93896 0 
7.22343 -5.93115 0 7.22464 -5.92333 0 7.22582 -5.91554 0 
7.22701 -5.90776 0 7.22821 -5.89998 0 7.22944 -5.89222 0 
7.23067 -5.88446 0 7.23192 -5.87671 0 7.23316 -5.86896 0 
7.23443 -5.86122 0 7.23571 -5.85349 0 7.23707 -5.84575 0 
7.23839 -5.83803 0 7.23972 -5.83033 0 7.24104 -5.82263 0 
7.24239 -5.81493 0 7.24377 -5.80726 0 7.24514 -5.79958 0 
7.24653 -5.79191 0 7.24795 -5.78425 0 7.24935 -5.7766 0 
7.25079 -5.76896 0 7.25229 -5.76131 0 7.25374 -5.75368 0 
7.25522 -5.74606 0 7.25669 -5.73845 0 7.25817 -5.73084 0 
7.2597 -5.72325 0 7.26123 -5.71567 0 7.26277 -5.7081 0 
7.26429 -5.70052 0 7.26588 -5.69297 0 7.26749 -5.6854 0 
7.26906 -5.67785 0 7.27065 -5.67031 0 7.27226 -5.66279 0 
7.2739 -5.65528 0 7.27553 -5.64777 0 7.27715 -5.64026 0 
7.27883 -5.63278 0 7.2805 -5.6253 0 7.28216 -5.61782 0 
7.28393 -5.61034 0 7.28561 -5.60287 0 7.28734 -5.59543 0 
7.28906 -5.58799 0 7.29082 -5.58057 0 7.29256 -5.57314 0 
7.29432 -5.56573 0 7.29611 -5.55833 0 7.2979 -5.55094 0 
7.2997 -5.54356 0 7.3015 -5.53618 0 7.30336 -5.52879 0 
7.30521 -5.52144 0 7.30705 -5.51408 0 7.3089 -5.50675 0 
7.31079 -5.49942 0 7.31267 -5.4921 0 7.31457 -5.48479 0 
7.31645 -5.47748 0 7.31837 -5.47019 0 7.32031 -5.46291 0 
7.32229 -5.45562 0 7.32424 -5.44835 0 7.32622 -5.4411 0 
7.32819 -5.43386 0 7.33014 -5.42661 0 7.33217 -5.4194 0 
7.33418 -5.41218 0 7.33618 -5.40496 0 7.33821 -5.39776 0 
7.34026 -5.39057 0 7.34234 -5.3834 0 7.34441 -5.37623 0 
7.34646 -5.36906 0 7.34854 -5.36191 0 7.35065 -5.35476 0 
7.35277 -5.34764 0 7.35489 -5.34051 0 7.357 -5.33339 0 
7.35914 -5.32629 0 7.36129 -5.3192 0 7.36347 -5.31212 0 
7.36565 -5.30505 0 7.36781 -5.29797 0 7.37003 -5.29093 0 
7.37224 -5.28388 0 7.37444 -5.27684 0 7.37667 -5.26982 0 
7.37892 -5.26281 0 7.38116 -5.2558 0 7.38341 -5.24881 0 
7.38567 -5.24181 0 7.38795 -5.23484 0 7.39025 -5.22788 0 
7.39254 -5.22092 0 7.39485 -5.21398 0 7.39719 -5.20705 0 
7.39953 -5.20012 0 7.40184 -5.1932 0 7.40418 -5.18629 0 
7.40656 -5.1794 0 7.40895 -5.17252 0 7.41133 -5.16564 0 
7.4137 -5.15877 0 7.41613 -5.15193 0 7.41852 -5.14507 0 
7.42096 -5.13825 0 7.4234 -5.13142 0 7.42582 -5.1246 0 
7.42826 -5.1178 0 7.43074 -5.111 0 7.4332 -5.10422 0 
7.43568 -5.09745 0 7.4382 -5.09069 0 7.4407 -5.08393 0 
7.44322 -5.07719 0 7.44573 -5.07046 0 7.44827 -5.06374 0 
7.4508 -5.05702 0 7.45335 -5.05032 0 7.45592 -5.04363 0 
7.45849 -5.03695 0 7.46108 -5.03028 0 7.46366 -5.02361 0 
7.46627 -5.01697 0 7.46889 -5.01033 0 7.47151 -5.0037 0 
7.47412 -4.99707 0 7.47678 -4.99047 0 7.47944 -4.98388 0 
7.48208 -4.97728 0 7.48475 -4.97071 0 7.48744 -4.96414 0 
7.49012 -4.95758 0 7.49284 -4.95104 0 7.49552 -4.9445 0 
7.49825 -4.93798 0 7.50096 -4.93146 0 7.5037 -4.92495 0 
7.50646 -4.91846 0 7.5092 -4.91197 0 7.51197 -4.9055 0 
7.51474 -4.89904 0 7.51752 -4.89258 0 7.52033 -4.88615 0 
7.52314 -4.87971 0 7.52596 -4.8733 0 7.52877 -4.86688 0 
7.53161 -4.86048 0 7.53443 -4.85409 0 7.53729 -4.84771 0 
7.54016 -4.84135 0 7.54303 -4.83499 0 7.54589 -4.82863 0 
7.5488 -4.82231 0 7.55166 -4.81597 0 7.5546 -4.80966 0 
7.55751 -4.80336 0 7.56042 -4.79706 0 7.56335 -4.79077 0 
7.56631 -4.7845 0 7.56925 -4.77823 0 7.57222 -4.77199 0 
7.57522 -4.76575 0 7.57816 -4.75951 0 7.58117 -4.75329 0 
7.58417 -4.74708 0 7.58719 -4.74088 0 7.59021 -4.73469 0 
7.59323 -4.72851 0 7.59626 -4.72234 0 7.59931 -4.71618 0 
7.60235 -4.71003 0 7.60541 -4.70389 0 7.6085 -4.69777 0 
7.61158 -4.69166 0 7.61468 -4.68555 0 7.61777 -4.67946 0 
7.62089 -4.67337 0 7.624 -4.6673 0 7.62712 -4.66123 0 
7.63028 -4.65519 0 7.63342 -4.64915 0 7.63659 -4.64312 0 
7.63975 -4.63709 0 7.64293 -4.63109 0 7.64611 -4.62508 0 
7.6493 -4.6191 0 7.65248 -4.61311 0 7.65569 -4.60714 0 
7.65893 -4.60119 0 7.66216 -4.59524 0 7.66541 -4.58931 0 
7.66865 -4.58338 0 7.67191 -4.57747 0 7.67516 -4.57156 0 
7.67844 -4.56567 0 7.68171 -4.55978 0 7.685 -4.55391 0 
7.68832 -4.54805 0 7.69162 -4.54219 0 7.69495 -4.53636 0 
7.69828 -4.53052 0 7.70162 -4.5247 0 7.70496 -4.51889 0 
7.70832 -4.51309 0 7.71166 -4.5073 0 7.71504 -4.50152 0 
7.71844 -4.49576 0 7.72182 -4.49 0 7.72524 -4.48426 0 
7.72864 -4.47852 0 7.73207 -4.4728 0 7.73549 -4.46708 0 
7.73893 -4.46137 0 7.74237 -4.45568 0 7.74582 -4.44999 0 
7.74931 -4.44432 0 7.75278 -4.43866 0 7.75624 -4.433 0 
7.75973 -4.42736 0 7.76324 -4.42173 0 7.76674 -4.41611 0 
7.77027 -4.4105 0 7.77378 -4.40489 0 7.77732 -4.3993 0 
7.78089 -4.39373 0 7.78444 -4.38816 0 7.78799 -4.3826 0 
7.79156 -4.37705 0 7.79515 -4.37152 0 7.79873 -4.36599 0 
7.80235 -4.36047 0 7.80595 -4.35496 0 7.80957 -4.34947 0 
7.81318 -4.34398 0 7.81683 -4.33851 0 7.82046 -4.33304 0 
7.82411 -4.32758 0 7.82779 -4.32214 0 7.83147 -4.31671 0 
7.83516 -4.31129 0 7.83885 -4.30588 0 7.84256 -4.30048 0 
7.84626 -4.29508 0 7.84998 -4.2897 0 7.85371 -4.28433 0 
7.85744 -4.27897 0 7.86118 -4.27361 0 7.86493 -4.26827 0 
7.86868 -4.26294 0 7.87245 -4.25761 0 7.87624 -4.25231 0 
7.88003 -4.24701 0 7.88385 -4.24172 0 7.88765 -4.23644 0 
7.89147 -4.23118 0 7.8953 -4.22592 0 7.89914 -4.22067 0 
7.90297 -4.21543 0 7.90683 -4.2102 0 7.91068 -4.20498 0 
7.91456 -4.19977 0 7.91846 -4.19458 0 7.92234 -4.18939 0 
7.92622 -4.18421 0 7.93013 -4.17904 0 7.93407 -4.17389 0 
7.93799 -4.16874 0 7.94194 -4.16361 0 7.94587 -4.15848 0 
7.94984 -4.15337 0 7.9538 -4.14826 0 7.95777 -4.14316 0 
7.96174 -4.13807 0 7.96573 -4.133 0 7.96976 -4.12794 0 