# vtk DataFile Version 3.0
vtk output
ASCII
DATASET POLYDATA
POINTS 5000 float
9.41018 -35.5277 0 12.8373 -35.1205 0 14.2731 -34.9395 0 
15.3787 -34.7974 0 16.3125 -34.676 0 17.1357 -34.5683 0 
17.8799 -34.4705 0 18.5639 -34.3806 0 19.1999 -34.2971 0 
19.7965 -34.2188 0 20.3598 -34.1452 0 20.8947 -34.0755 0 
21.4047 -34.0094 0 21.8928 -33.9464 0 22.3614 -33.8862 0 
22.8125 -33.8286 0 23.2475 -33.7734 0 23.6681 -33.7204 0 
24.0754 -33.6694 0 24.4703 -33.6203 0 24.854 -33.5729 0 
25.227 -33.5272 0 25.5902 -33.483 0 25.944 -33.4403 0 
26.2893 -33.3989 0 26.6264 -33.3588 0 26.9557 -33.3199 0 
27.2777 -33.2822 0 27.5928 -33.2456 0 27.9014 -33.21 0 
28.2036 -33.1755 0 28.4999 -33.1418 0 28.7906 -33.1091 0 
29.0757 -33.0773 0 29.3557 -33.0462 0 29.6306 -33.016 0 
29.9008 -32.9865 0 30.1664 -32.9576 0 30.4275 -32.9295 0 
30.6843 -32.9021 0 30.9371 -32.8753 0 31.1859 -32.8492 0 
31.4308 -32.8235 0 31.672 -32.7985 0 31.9098 -32.774 0 
32.1441 -32.75 0 32.3749 -32.7265 0 32.6026 -32.7035 0 
32.8271 -32.6809 0 33.0485 -32.6588 0 33.2671 -32.6371 0 
33.4827 -32.6158 0 33.6957 -32.595 0 33.9058 -32.5745 0 
34.1133 -32.5543 0 34.3182 -32.5345 0 34.5207 -32.5151 0 
34.7208 -32.496 0 34.9185 -32.4771 0 35.1138 -32.4586 0 
35.307 -32.4403 0 35.4979 -32.4224 0 35.6868 -32.4047 0 
35.8735 -32.3873 0 36.0582 -32.3701 0 36.2409 -32.3532 0 
36.4217 -32.3365 0 36.6006 -32.32 0 36.7776 -32.3036 0 
36.9528 -32.2876 0 37.1263 -32.2717 0 37.298 -32.256 0 
37.468 -32.2405 0 37.6364 -32.2252 0 37.8031 -32.21 0 
37.9683 -32.195 0 38.1319 -32.1802 0 38.294 -32.1655 0 
38.4545 -32.1509 0 38.6137 -32.1364 0 38.7714 -32.1221 0 
38.9278 -32.108 0 39.0827 -32.0939 0 39.2362 -32.08 0 
39.3885 -32.0661 0 39.5395 -32.0524 0 39.6891 -32.0388 0 
39.8375 -32.0252 0 39.9848 -32.0118 0 40.1307 -31.9983 0 
40.2756 -31.9851 0 40.4192 -31.9719 0 40.5618 -31.9587 0 
40.7032 -31.9457 0 40.8434 -31.9327 0 40.9827 -31.9197 0 
41.1208 -31.9069 0 41.2579 -31.894 0 41.3939 -31.8813 0 
41.5291 -31.8684 0 41.6631 -31.8558 0 41.7962 -31.8431 0 
41.9284 -31.8305 0 42.0596 -31.818 0 42.1898 -31.8054 0 
42.3192 -31.7929 0 42.4477 -31.7804 0 42.5752 -31.768 0 
42.7019 -31.7556 0 42.8278 -31.7432 0 42.9528 -31.7307 0 
43.0769 -31.7183 0 43.2002 -31.7059 0 43.3228 -31.6936 0 
43.4446 -31.6812 0 43.5655 -31.6689 0 43.6858 -31.6565 0 
43.8052 -31.6442 0 43.9239 -31.6319 0 44.0418 -31.6195 0 
44.1591 -31.6071 0 44.2756 -31.5947 0 44.3914 -31.5824 0 
44.5065 -31.57 0 44.621 -31.5576 0 44.7347 -31.5453 0 
44.8479 -31.5329 0 44.9603 -31.5204 0 45.072 -31.508 0 
45.1832 -31.4956 0 45.2937 -31.4831 0 45.4037 -31.4705 0 
45.513 -31.458 0 45.6216 -31.4455 0 45.7298 -31.4329 0 
45.8373 -31.4203 0 45.9442 -31.4077 0 46.0505 -31.3951 0 
46.1563 -31.3824 0 46.2615 -31.3697 0 46.3662 -31.357 0 
46.4703 -31.3441 0 46.574 -31.3313 0 46.6771 -31.3185 0 
46.7796 -31.3056 0 46.8816 -31.2927 0 46.9832 -31.2797 0 
47.0842 -31.2668 0 47.1847 -31.2537 0 47.2847 -31.2407 0 
47.3842 -31.2276 0 47.4834 -31.2143 0 47.5819 -31.2011 0 
47.6801 -31.1879 0 47.7777 -31.1747 0 47.8749 -31.1613 0 
47.9717 -31.148 0 48.068 -31.1346 0 48.1638 -31.1211 0 
48.2593 -31.1076 0 48.3543 -31.0941 0 48.4489 -31.0805 0 
48.5431 -31.0667 0 48.6368 -31.0531 0 48.7301 -31.0393 0 
48.823 -31.0255 0 48.9156 -31.0117 0 49.0077 -30.9978 0 
49.0994 -30.9838 0 49.1908 -30.9698 0 49.2817 -30.9558 0 
49.3724 -30.9417 0 49.4626 -30.9274 0 49.5524 -30.9132 0 
49.6419 -30.8989 0 49.731 -30.8846 0 49.8198 -30.8703 0 
49.9082 -30.8558 0 49.9962 -30.8413 0 50.0838 -30.8268 0 
50.1712 -30.8122 0 50.2582 -30.7975 0 50.3449 -30.7828 0 
50.4312 -30.768 0 50.5173 -30.7531 0 50.603 -30.7382 0 
50.6883 -30.7233 0 50.7734 -30.7083 0 50.8581 -30.6932 0 
50.9425 -30.6781 0 51.0266 -30.6629 0 51.1103 -30.6477 0 
51.1938 -30.6324 0 51.2771 -30.617 0 51.3599 -30.6015 0 
51.4425 -30.5861 0 51.5249 -30.5705 0 51.6068 -30.5549 0 
51.6886 -30.5393 0 51.77 -30.5236 0 51.8511 -30.5078 0 
51.9321 -30.492 0 52.0127 -30.4761 0 52.093 -30.4601 0 
52.1731 -30.444 0 52.2529 -30.4279 0 52.3324 -30.4118 0 
52.4117 -30.3956 0 52.4907 -30.3793 0 52.5694 -30.363 0 
52.6479 -30.3466 0 52.7262 -30.3301 0 52.8041 -30.3136 0 
52.8819 -30.2971 0 52.9594 -30.2803 0 53.0366 -30.2636 0 
53.1137 -30.2469 0 53.1904 -30.23 0 53.2669 -30.2132 0 
53.3432 -30.1962 0 53.4193 -30.1792 0 53.4951 -30.1622 0 
53.5707 -30.145 0 53.6461 -30.1278 0 53.7212 -30.1105 0 
53.7961 -30.0932 0 53.8708 -30.0758 0 53.9453 -30.0584 0 
54.0196 -30.0409 0 54.0936 -30.0233 0 54.1675 -30.0057 0 
54.2411 -29.988 0 54.3145 -29.9703 0 54.3877 -29.9525 0 
54.4607 -29.9346 0 54.5335 -29.9166 0 54.606 -29.8986 0 
54.6785 -29.8805 0 54.7506 -29.8624 0 54.8226 -29.8442 0 
54.8943 -29.826 0 54.966 -29.8077 0 55.0373 -29.7893 0 
55.1085 -29.7709 0 55.1796 -29.7524 0 55.2503 -29.7338 0 
55.321 -29.7152 0 55.3914 -29.6965 0 55.4617 -29.6778 0 
55.5318 -29.659 0 55.6016 -29.6402 0 55.6714 -29.6213 0 
55.7408 -29.6023 0 55.8102 -29.5833 0 55.8794 -29.5642 0 
55.9484 -29.5451 0 56.0173 -29.5258 0 56.0859 -29.5065 0 
56.1544 -29.4872 0 56.2227 -29.4678 0 56.2908 -29.4484 0 
56.3587 -29.4289 0 56.4265 -29.4093 0 56.4942 -29.3897 0 
56.5617 -29.37 0 56.629 -29.3503 0 56.6961 -29.3304 0 
56.7631 -29.3105 0 56.83 -29.2906 0 56.8966 -29.2707 0 
56.9631 -29.2506 0 57.0295 -29.2305 0 57.0956 -29.2104 0 
57.1617 -29.1902 0 57.2276 -29.17 0 57.2933 -29.1496 0 
57.3589 -29.1293 0 57.4244 -29.1087 0 57.4896 -29.0883 0 
57.5548 -29.0677 0 57.6198 -29.0471 0 57.6846 -29.0265 0 
57.7493 -29.0058 0 57.8139 -28.985 0 57.8782 -28.9642 0 
57.9425 -28.9433 0 58.0066 -28.9224 0 58.0706 -28.9013 0 
58.1345 -28.8802 0 58.1982 -28.8591 0 58.2617 -28.838 0 
58.3251 -28.8168 0 58.3884 -28.7955 0 58.4516 -28.7742 0 
58.5147 -28.7529 0 58.5775 -28.7314 0 58.6402 -28.71 0 
58.7029 -28.6883 0 58.7654 -28.6667 0 58.8277 -28.6451 0 
58.8899 -28.6234 0 58.9521 -28.6017 0 59.0141 -28.5799 0 
59.0758 -28.558 0 59.1375 -28.5361 0 59.1991 -28.5142 0 
59.2606 -28.4922 0 59.3219 -28.4701 0 59.3832 -28.4479 0 
59.4443 -28.4257 0 59.5052 -28.4035 0 59.566 -28.3813 0 
59.6268 -28.359 0 59.6874 -28.3366 0 59.7479 -28.3142 0 
59.8082 -28.2917 0 59.8684 -28.2692 0 59.9285 -28.2466 0 
59.9886 -28.2239 0 60.0484 -28.2013 0 60.1082 -28.1785 0 
60.1679 -28.1558 0 60.2274 -28.133 0 60.2868 -28.1101 0 
60.3462 -28.0872 0 60.4053 -28.0642 0 60.4644 -28.0412 0 
60.5234 -28.0182 0 60.5823 -27.995 0 60.641 -27.9718 0 
60.6996 -27.9486 0 60.7582 -27.9254 0 60.8166 -27.9021 0 
60.8749 -27.8788 0 60.9331 -27.8554 0 60.9912 -27.8319 0 
61.0492 -27.8085 0 61.107 -27.7849 0 61.1648 -27.7614 0 
61.2225 -27.7377 0 61.28 -27.714 0 61.3375 -27.6903 0 
61.3948 -27.6665 0 61.4521 -27.6427 0 61.5092 -27.6189 0 
61.5663 -27.595 0 61.6232 -27.5711 0 61.68 -27.5471 0 
61.7368 -27.5231 0 61.7934 -27.4989 0 61.8499 -27.4748 0 
61.9064 -27.4507 0 61.9627 -27.4265 0 62.0189 -27.4022 0 
62.075 -27.378 0 62.131 -27.3536 0 62.187 -27.3293 0 
62.2428 -27.3049 0 62.2985 -27.2804 0 62.3542 -27.2559 0 
62.4097 -27.2313 0 62.4652 -27.2067 0 62.5205 -27.1821 0 
62.5758 -27.1575 0 62.6309 -27.1328 0 62.686 -27.108 0 
62.741 -27.0832 0 62.7958 -27.0584 0 62.8506 -27.0336 0 
62.9053 -27.0087 0 62.9599 -26.9836 0 63.0144 -26.9587 0 
63.0688 -26.9336 0 63.1231 -26.9086 0 63.1773 -26.8835 0 
63.2314 -26.8584 0 63.2855 -26.8332 0 63.3394 -26.808 0 
63.3933 -26.7827 0 63.4471 -26.7575 0 63.5008 -26.7321 0 
63.5544 -26.7067 0 63.6079 -26.6813 0 63.6613 -26.6558 0 
63.7146 -26.6304 0 63.7678 -26.6049 0 63.821 -26.5793 0 
63.8741 -26.5537 0 63.927 -26.5281 0 63.9799 -26.5025 0 
64.0327 -26.4768 0 64.0854 -26.451 0 64.138 -26.4252 0 
64.1906 -26.3994 0 64.2431 -26.3736 0 64.2954 -26.3477 0 
64.3477 -26.3218 0 64.3999 -26.2959 0 64.452 -26.2699 0 
64.504 -26.2439 0 64.556 -26.2179 0 64.6079 -26.1917 0 
64.6596 -26.1656 0 64.7113 -26.1395 0 64.7629 -26.1133 0 
64.8144 -26.0871 0 64.8659 -26.0609 0 64.9172 -26.0346 0 
64.9685 -26.0083 0 65.0197 -25.982 0 65.0708 -25.9556 0 
65.1218 -25.9292 0 65.1728 -25.9027 0 65.2237 -25.8762 0 
65.2744 -25.8497 0 65.3251 -25.8232 0 65.3758 -25.7967 0 
65.4263 -25.7701 0 65.4767 -25.7435 0 65.5272 -25.7168 0 
65.5775 -25.6902 0 65.6277 -25.6635 0 65.6779 -25.6366 0 
65.7279 -25.6099 0 65.7779 -25.5831 0 65.8278 -25.5562 0 
65.8777 -25.5294 0 65.9274 -25.5025 0 65.977 -25.4756 0 
66.0267 -25.4487 0 66.0761 -25.4217 0 66.1256 -25.3947 0 
66.175 -25.3677 0 66.2243 -25.3406 0 66.2735 -25.3135 0 
66.3226 -25.2864 0 66.3717 -25.2593 0 66.4206 -25.2321 0 
66.4696 -25.2049 0 66.5184 -25.1777 0 66.5671 -25.1505 0 
66.6158 -25.1232 0 66.6644 -25.0959 0 66.7129 -25.0685 0 
66.7614 -25.0412 0 66.8097 -25.0138 0 66.858 -24.9864 0 
66.9063 -24.959 0 66.9544 -24.9316 0 67.0025 -24.9041 0 
67.0505 -24.8766 0 67.0984 -24.8491 0 67.1463 -24.8216 0 
67.194 -24.7939 0 67.2417 -24.7663 0 67.2894 -24.7387 0 
67.3369 -24.7111 0 67.3844 -24.6834 0 67.4318 -24.6557 0 
67.4791 -24.628 0 67.5264 -24.6003 0 67.5736 -24.5725 0 
67.6206 -24.5448 0 67.6677 -24.517 0 67.7147 -24.489 0 
67.7616 -24.4612 0 67.8084 -24.4333 0 67.8552 -24.4055 0 
67.9018 -24.3776 0 67.9485 -24.3496 0 67.995 -24.3217 0 
68.0414 -24.2937 0 68.0879 -24.2657 0 68.1341 -24.2377 0 
68.1804 -24.2096 0 68.2266 -24.1815 0 68.2727 -24.1535 0 
68.3187 -24.1254 0 68.3647 -24.0972 0 68.4106 -24.0691 0 
68.4564 -24.041 0 68.5021 -24.0128 0 68.5478 -23.9846 0 
68.5934 -23.9564 0 68.639 -23.9282 0 68.6844 -23.8998 0 
68.7298 -23.8715 0 68.7752 -23.8432 0 68.8204 -23.8149 0 
68.8656 -23.7866 0 68.9107 -23.7583 0 68.9557 -23.7299 0 
69.0008 -23.7015 0 69.0456 -23.6731 0 69.0905 -23.6447 0 
69.1353 -23.6162 0 69.18 -23.5877 0 69.2247 -23.5593 0 
69.2692 -23.5308 0 69.3137 -23.5023 0 69.3581 -23.4738 0 
69.4024 -23.4452 0 69.4467 -23.4167 0 69.491 -23.3881 0 
69.5351 -23.3596 0 69.5792 -23.331 0 69.6232 -23.3022 0 
69.6672 -23.2736 0 69.711 -23.245 0 69.7548 -23.2163 0 
69.7985 -23.1876 0 69.8422 -23.1589 0 69.8859 -23.1302 0 
69.9294 -23.1015 0 69.9728 -23.0728 0 70.0163 -23.044 0 
70.0596 -23.0152 0 70.1029 -22.9864 0 70.1461 -22.9576 0 
[...]
POINT_DATA 5000
VECTORS velocity double
15.745 -10.5028 0 15.815 -9.79482 0 15.8628 -9.49284 0 
15.9045 -9.2607 0 15.9421 -9.06602 0 15.9762 -8.89613 0 
16.0074 -8.7445 0 16.036 -8.60707 0 16.0622 -8.48127 0 
16.0861 -8.36527 0 16.108 -8.25772 0 16.1279 -8.15753 0 
16.1459 -8.0639 0 16.1621 -7.97617 0 16.1767 -7.89376 0 
16.1897 -7.81623 0 16.2011 -7.7432 0 16.2111 -7.67428 0 
16.2196 -7.60917 0 16.2268 -7.54766 0 16.2327 -7.48946 0 
16.2373 -7.43441 0 16.2407 -7.38228 0 16.243 -7.33294 0 
16.2441 -7.28621 0 16.2442 -7.24195 0 16.2432 -7.20008 0 
16.2411 -7.1604 0 16.2382 -7.12284 0 16.2343 -7.08728 0 
16.2294 -7.05365 0 16.2237 -7.02186 0 16.2172 -6.9918 0 
16.2099 -6.96342 0 16.2017 -6.93664 0 16.1928 -6.91138 0 
16.1832 -6.88759 0 16.1729 -6.86522 0 16.1618 -6.84417 0 
16.1502 -6.82441 0 16.1378 -6.80588 0 16.1249 -6.78855 0 
16.1114 -6.77235 0 16.0973 -6.75726 0 16.0826 -6.74321 0 
16.0674 -6.73017 0 16.0517 -6.71811 0 16.0355 -6.70701 0 
16.0188 -6.69679 0 16.0016 -6.68744 0 15.984 -6.67893 0 
15.966 -6.67122 0 15.9475 -6.66429 0 15.9286 -6.65811 0 
15.9094 -6.65264 0 15.8897 -6.64788 0 15.8697 -6.64378 0 
15.8494 -6.64033 0 15.8287 -6.63751 0 15.8077 -6.63528 0 
15.7864 -6.63363 0 15.7648 -6.63254 0 15.7429 -6.63198 0 
15.7207 -6.63194 0 15.6983 -6.63241 0 15.6756 -6.63336 0 
15.6526 -6.63477 0 15.6295 -6.63664 0 15.6061 -6.63895 0 
15.5824 -6.64166 0 15.5586 -6.64478 0 15.5346 -6.64829 0 
15.5104 -6.65218 0 15.4859 -6.65642 0 15.4614 -6.66102 0 
15.4366 -6.66595 0 15.4117 -6.67121 0 15.3866 -6.67678 0 
15.3614 -6.68265 0 15.3361 -6.68883 0 15.3106 -6.69527 0 
15.285 -6.70199 0 15.2592 -6.70896 0 15.2334 -6.71618 0 
15.2075 -6.72365 0 15.1814 -6.73135 0 15.1553 -6.73927 0 
15.129 -6.74741 0 15.1027 -6.75576 0 15.0763 -6.76431 0 
15.0498 -6.77304 0 15.0233 -6.78196 0 14.9967 -6.79106 0 
14.97 -6.80033 0 14.9433 -6.80975 0 14.9165 -6.81935 0 
14.8897 -6.82908 0 14.8628 -6.83896 0 14.8359 -6.84898 0 
14.8089 -6.85914 0 14.782 -6.86942 0 14.755 -6.87981 0 
14.7279 -6.89033 0 14.7009 -6.90095 0 14.6738 -6.91168 0 
14.6468 -6.92251 0 14.6197 -6.93344 0 14.5926 -6.94445 0 
14.5655 -6.95556 0 14.5384 -6.96675 0 14.5113 -6.97802 0 
14.4842 -6.98935 0 14.4571 -7.00076 0 14.4301 -7.01223 0 
14.403 -7.02377 0 14.3759 -7.03537 0 14.3489 -7.04702 0 
14.3219 -7.05872 0 14.2949 -7.07047 0 14.2679 -7.08226 0 
14.241 -7.09411 0 14.2141 -7.10598 0 14.1873 -7.11789 0 
14.1604 -7.12983 0 14.1336 -7.1418 0 14.1068 -7.15381 0 
14.0801 -7.16584 0 14.0534 -7.17788 0 14.0268 -7.18994 0 
14.0002 -7.20202 0 13.9736 -7.21411 0 13.9471 -7.22622 0 
13.9207 -7.23834 0 13.8943 -7.25046 0 13.8679 -7.26259 0 
13.8416 -7.27473 0 13.8154 -7.28685 0 13.7892 -7.29898 0 
13.7631 -7.31111 0 13.737 -7.32323 0 13.711 -7.33535 0 
13.6851 -7.34745 0 13.6592 -7.35955 0 13.6334 -7.37163 0 
13.6076 -7.3837 0 13.5819 -7.39576 0 13.5563 -7.40779 0 
13.5307 -7.41981 0 13.5053 -7.43181 0 13.4798 -7.44378 0 
13.4545 -7.45573 0 13.4293 -7.46766 0 13.4041 -7.47955 0 
13.379 -7.49144 0 13.3539 -7.50328 0 13.3289 -7.51509 0 
13.3041 -7.52688 0 13.2792 -7.53863 0 13.2545 -7.55035 0 
13.2299 -7.56203 0 13.2053 -7.57369 0 13.1808 -7.5853 0 
13.1564 -7.59688 0 13.132 -7.60841 0 13.1078 -7.6199 0 
13.0836 -7.63136 0 13.0595 -7.64277 0 13.0355 -7.65415 0 
13.0116 -7.66547 0 12.9878 -7.67676 0 12.964 -7.68799 0 
12.9404 -7.69919 0 12.9168 -7.71033 0 12.8934 -7.72142 0 
12.87 -7.73248 0 12.8466 -7.74349 0 12.8234 -7.75444 0 
12.8003 -7.76534 0 12.7772 -7.77619 0 12.7543 -7.78698 0 
12.7314 -7.79773 0 12.7086 -7.80842 0 12.686 -7.81906 0 
12.6634 -7.82964 0 12.6409 -7.84017 0 12.6185 -7.85066 0 
12.5962 -7.86106 0 12.5739 -7.87143 0 12.5518 -7.88174 0 
12.5298 -7.89199 0 12.5078 -7.90218 0 12.486 -7.91231 0 
12.4642 -7.92238 0 12.4426 -7.93239 0 12.421 -7.94234 0 
12.3995 -7.95224 0 12.3781 -7.96207 0 12.3568 -7.97184 0 
12.3356 -7.98155 0 12.3145 -7.99121 0 12.2935 -8.00079 0 
12.2726 -8.01032 0 12.2518 -8.01978 0 12.2311 -8.02918 0 
12.2105 -8.03851 0 12.1899 -8.04779 0 12.1695 -8.05699 0 
12.1491 -8.06614 0 12.1289 -8.07521 0 12.1087 -8.08424 0 
12.0887 -8.09318 0 12.0687 -8.10207 0 12.0489 -8.11089 0 
12.0291 -8.11964 0 12.0095 -8.12832 0 11.9899 -8.13694 0 
11.9704 -8.1455 0 11.9511 -8.15398 0 11.9318 -8.1624 0 
11.9126 -8.17075 0 11.8935 -8.17905 0 11.8745 -8.18726 0 
11.8556 -8.19542 0 11.8368 -8.20351 0 11.8181 -8.21151 0 
11.7995 -8.21946 0 11.781 -8.22734 0 11.7625 -8.23516 0 
11.7442 -8.2429 0 11.726 -8.25058 0 11.7078 -8.25819 0 
11.6898 -8.26572 0 11.6719 -8.2732 0 11.654 -8.2806 0 
11.6363 -8.28792 0 11.6187 -8.29518 0 11.6011 -8.30237 0 
11.5836 -8.3095 0 11.5663 -8.31656 0 11.549 -8.32353 0 
11.5318 -8.33045 0 11.5147 -8.33731 0 11.4978 -8.34408 0 
11.4809 -8.35078 0 11.4641 -8.35743 0 11.4474 -8.36399 0 
11.4308 -8.37048 0 11.4143 -8.37691 0 11.3979 -8.38328 0 
11.3816 -8.38957 0 11.3653 -8.39579 0 11.3492 -8.40195 0 
11.3332 -8.40802 0 11.3172 -8.41403 0 11.3014 -8.41997 0 
11.2856 -8.42585 0 11.27 -8.43165 0 11.2544 -8.43738 0 
11.2389 -8.44304 0 11.2236 -8.44864 0 11.2083 -8.45416 0 
11.1931 -8.45961 0 11.178 -8.465 0 11.163 -8.47031 0 
11.148 -8.47557 0 11.1332 -8.48074 0 11.1185 -8.48584 0 
11.1039 -8.49087 0 11.0893 -8.49585 0 11.0749 -8.50074 0 
11.0605 -8.50558 0 11.0462 -8.51034 0 11.0321 -8.51503 0 
11.0179 -8.51966 0 11.0039 -8.52422 0 10.9901 -8.5287 0 
10.9762 -8.53312 0 10.9625 -8.53746 0 10.9489 -8.54173 0 
10.9354 -8.54595 0 10.9219 -8.5501 0 10.9085 -8.55417 0 
10.8953 -8.55818 0 10.8821 -8.56212 0 10.869 -8.56599 0 
10.8559 -8.5698 0 10.843 -8.57353 0 10.8303 -8.57718 0 
10.8175 -8.58079 0 10.8049 -8.58431 0 10.7923 -8.58778 0 
10.7798 -8.59118 0 10.7674 -8.59451 0 10.7551 -8.59778 0 
10.7429 -8.60098 0 10.7308 -8.6041 0 10.7187 -8.60716 0 
10.7068 -8.61015 0 10.6949 -8.61309 0 10.6831 -8.61595 0 
10.6714 -8.61874 0 10.6598 -8.62148 0 10.6483 -8.62415 0 
10.6369 -8.62674 0 10.6255 -8.62928 0 10.6142 -8.63174 0 
10.603 -8.63416 0 10.5919 -8.63649 0 10.581 -8.63875 0 
10.57 -8.64096 0 10.5592 -8.6431 0 10.5484 -8.64518 0 
10.5377 -8.6472 0 10.5271 -8.64915 0 10.5166 -8.65104 0 
10.5062 -8.65286 0 10.4958 -8.65461 0 10.4856 -8.65631 0 
10.4754 -8.65792 0 10.4653 -8.65949 0 10.4553 -8.66099 0 
10.4453 -8.66244 0 10.4355 -8.66381 0 10.4257 -8.66512 0 
10.416 -8.66638 0 10.4064 -8.66757 0 10.3969 -8.6687 0 
10.3874 -8.66976 0 10.3781 -8.67075 0 10.3688 -8.67169 0 
10.3596 -8.67257 0 10.3504 -8.67339 0 10.3413 -8.67415 0 
10.3324 -8.67485 0 10.3235 -8.67548 0 10.3146 -8.67606 0 
10.3059 -8.67657 0 10.2972 -8.67703 0 10.2886 -8.67742 0 
10.2801 -8.67774 0 10.2717 -8.67801 0 10.2634 -8.67822 0 
10.2551 -8.67838 0 10.2469 -8.67848 0 10.2387 -8.67851 0 
10.2307 -8.67849 0 10.2227 -8.67841 0 10.2148 -8.67827 0 
10.207 -8.67807 0 10.1993 -8.67779 0 10.1916 -8.67748 0 
10.1839 -8.67711 0 10.1764 -8.67668 0 10.1689 -8.6762 0 
10.1616 -8.67565 0 10.1543 -8.67505 0 10.147 -8.67439 0 
10.1399 -8.67368 0 10.1328 -8.67291 0 10.1257 -8.67208 0 
10.1188 -8.67118 0 10.112 -8.67024 0 10.1051 -8.66924 0 
10.0984 -8.6682 0 10.0918 -8.66709 0 10.0851 -8.66594 0 
10.0786 -8.66472 0 10.0722 -8.66345 0 10.0658 -8.66212 0 
10.0595 -8.66075 0 10.0533 -8.6593 0 10.0471 -8.65781 0 
10.041 -8.65627 0 10.0349 -8.65468 0 10.029 -8.65304 0 
10.0231 -8.65134 0 10.0172 -8.64959 0 10.0115 -8.64779 0 
10.0058 -8.64593 0 10.0001 -8.64402 0 9.99456 -8.64207 0 
9.98913 -8.64003 0 9.98368 -8.63797 0 9.97831 -8.63586 0 
9.97303 -8.63369 0 9.96779 -8.63147 0 9.96262 -8.62921 0 
9.9575 -8.62689 0 9.95247 -8.62453 0 9.94748 -8.62212 0 
9.94258 -8.61965 0 9.93779 -8.61711 0 9.933 -8.61454 0 
9.92826 -8.61193 0 9.9236 -8.60927 0 9.91903 -8.60656 0 
9.91448 -8.6038 0 9.91002 -8.60099 0 9.9056 -8.59813 0 
9.90127 -8.59523 0 9.89696 -8.59228 0 9.89279 -8.58926 0 
9.88864 -8.58622 0 9.88452 -8.58313 0 9.88048 -8.57999 0 
9.87652 -8.5768 0 9.87259 -8.57357 0 9.86873 -8.57029 0 
9.86493 -8.56697 0 9.86118 -8.5636 0 9.85751 -8.56018 0 
9.85388 -8.55672 0 9.85037 -8.5532 0 9.84685 -8.54965 0 
9.84341 -8.54606 0 9.84002 -8.54242 0 9.83667 -8.53874 0 
9.83338 -8.53502 0 9.83018 -8.53124 0 9.82699 -8.52743 0 
9.82388 -8.52358 0 9.82084 -8.51968 0 9.81789 -8.51572 0 
9.81495 -8.51173 0 9.81207 -8.50771 0 9.80923 -8.50364 0 
9.80645 -8.49953 0 9.80374 -8.49538 0 9.80107 -8.49119 0 
9.79843 -8.48696 0 9.7959 -8.48269 0 9.79338 -8.47837 0 
9.79091 -8.47402 0 9.78857 -8.4696 0 9.78622 -8.46517 0 
9.78393 -8.46069 0 9.78168 -8.45618 0 9.77949 -8.45163 0 
9.77734 -8.44703 0 9.77526 -8.4424 0 9.77321 -8.43773 0 
9.77123 -8.43302 0 9.76929 -8.42828 0 9.76747 -8.42347 0 
9.76562 -8.41865 0 9.76385 -8.41379 0 9.76211 -8.40889 0 
9.76039 -8.40396 0 9.75877 -8.39899 0 9.75718 -8.39398 0 
9.75563 -8.38894 0 9.75414 -8.38386 0 9.75268 -8.37875 0 
9.75135 -8.37357 0 9.74999 -8.36839 0 9.74869 -8.36316 0 
9.74743 -8.3579 0 9.74621 -8.35261 0 9.74504 -8.34729 0 
9.74394 -8.34193 0 9.74285 -8.33653 0 9.74183 -8.3311 0 
9.74086 -8.32564 0 9.73991 -8.32014 0 9.73907 -8.31459 0 
9.73822 -8.30903 0 9.73742 -8.30343 0 9.73665 -8.29781 0 
9.73596 -8.29215 0 9.73528 -8.28645 0 9.73464 -8.28073 0 
9.73407 -8.27497 0 9.73351 -8.26919 0 9.73303 -8.26337 0 
9.73264 -8.2575 0 9.7322 -8.25161 0 9.73183 -8.2457 0 
9.7315 -8.23976 0 9.73123 -8.23379 0 9.73097 -8.22779 0 
9.73077 -8.22176 0 9.7306 -8.21569 0 9.73047 -8.2096 0 
9.73038 -8.20348 0 9.73032 -8.19734 0 9.73039 -8.19113 0 
9.73043 -8.18493 0 9.73049 -8.17869 0 9.73061 -8.17243 0 
9.73075 -8.16614 0 9.73094 -8.15982 0 9.73118 -8.15348 0 
9.73143 -8.14711 0 9.73175 -8.14071 0 9.73208 -8.13428 0 
9.7325 -8.1278 0 9.73293 -8.12133 0 9.73336 -8.11482 0 
9.73386 -8.10829 0 9.73437 -8.10173 0 9.73495 -8.09515 0 
9.73555 -8.08854 0 9.73617 -8.08191 0 9.73683 -8.07525 0 
9.73755 -8.06857 0 9.73827 -8.06186 0 9.73912 -8.05511 0 
9.73991 -8.04835 0 9.74076 -8.04157 0 9.74163 -8.03477 0 
9.74255 -8.02794 0 9.74348 -8.02109 0 9.74446 -8.01422 0 
9.74547 -8.00733 0 9.74651 -8.00041 0 9.74758 -7.99346 0 
9.74876 -7.98648 0 9.74989 -7.97949 0 9.75106 -7.97249 0 
9.75226 -7.96546 0 9.75349 -7.95841 0 9.75476 -7.95133 0 
9.75605 -7.94424 0 9.75739 -7.93713 0 9.75875 -7.93 0 
9.76013 -7.92284 0 9.76162 -7.91564 0 9.76307 -7.90845 0 
9.76454 -7.90123 0 9.76606 -7.894 0 9.7676 -7.88675 0 
9.76916 -7.87947 0 9.77077 -7.87218 0 9.77239 -7.86487 0 
9.77403 -7.85754 0 9.77573 -7.85019 0 9.77744 -7.84283 0 
9.77923 -7.83542 0 9.781 -7.82801 0 9.78279 -7.82059 0 
9.78463 -7.81316 0 9.78645 -7.8057 0 9.78833 -7.79822 0 
9.79024 -7.79074 0 9.79215 -7.78323 0 9.79413 -7.77571 0 
9.7961 -7.76817 0 9.79815 -7.76058 0 9.80021 -7.75302 0 
9.80227 -7.74543 0 9.80435 -7.73783 0 9.80646 -7.73021 0 
9.80857 -7.72257 0 9.81074 -7.71492 0 9.81293 -7.70726 0 
9.81513 -7.69957 0 9.81735 -7.69188 0 9.81968 -7.68415 0 
9.82196 -7.67642 0 9.82425 -7.66868 0 9.82659 -7.66093 0 
9.82895 -7.65317 0 9.8313 -7.64539 0 9.83371 -7.6376 0 
9.83612 -7.62979 0 9.83857 -7.62198 0 9.84104 -7.61415 0 
9.84351 -7.6063 0 9.84607 -7.59842 0 9.84861 -7.59055 0 
9.85114 -7.58267 0 9.85373 -7.57478 0 9.85631 -7.56687 0 
9.85891 -7.55895 0 9.86157 -7.55103 0 9.86422 -7.54309 0 
9.86687 -7.53513 0 9.86958 -7.52717 0 9.87236 -7.51918 0 
9.87508 -7.51119 0 9.87783 -7.50319 0 9.8806 -7.49519 0 
9.8834 -7.48717 0 9.88621 -7.47915 0 9.88906 -7.47112 0 
9.8919 -7.46307 0 9.89478 -7.45502 0 9.89767 -7.44695 0 
9.90058 -7.43888 0 9.90355 -7.43077 0 9.90651 -7.42269 0 
9.90946 -7.41458 0 9.91243 -7.40647 0 9.91544 -7.39836 0 
9.91845 -7.39023 0 9.92148 -7.3821 0 9.92451 -7.37395 0 
9.92759 -7.36581 0 9.93066 -7.35765 0 9.93381 -7.34946 0 
9.93693 -7.34128 0 9.94006 -7.3331 0 9.94322 -7.32492 0 
9.94637 -7.31672 0 9.94957 -7.30853 0 9.95275 -7.30032 0 
9.95598 -7.29211 0 9.9592 -7.28389 0 9.96243 -7.27566 0 
9.96568 -7.26742 0 9.96902 -7.25916 0 9.97229 -7.25092 0 
9.9756 -7.24267 0 9.97892 -7.23441 0 9.98224 -7.22615 0 
9.98558 -7.21788 0 9.98894 -7.20961 0 9.99231 -7.20133 0 
9.9957 -7.19305 0 9.9991 -7.18476 0 10.0026 -7.17645 0 
10.006 -7.16815 0 10.0094 -7.15985 0 10.0129 -7.15155 0 
10.0163 -7.14324 0 10.0198 -7.13493 0 10.0233 -7.12661 0 
10.0268 -7.1183 0 10.0303 -7.10997 0 10.0339 -7.10165 0 
10.0374 -7.09332 0 10.041 -7.08496 0 10.0446 -7.07662 0 
10.0482 -7.06828 0 10.0517 -7.05994 0 10.0553 -7.0516 0 
10.059 -7.04325 0 10.0626 -7.0349 0 10.0662 -7.02655 0 
10.0699 -7.0182 0 10.0735 -7.00984 0 10.0772 -7.00146 0 
10.0809 -6.9931 0 10.0846 -6.98474 0 10.0883 -6.97638 0 
10.092 -6.96801 0 10.0957 -6.95965 0 10.0994 -6.95128 0 
10.1032 -6.94292 0 10.1069 -6.93455 0 10.1107 -6.92618 0 
10.1145 -6.91778 0 10.1182 -6.90941 0 10.122 -6.90104 0 
10.1258 -6.89267 0 10.1296 -6.8843 0 10.1335 -6.87593 0 
10.1373 -6.86756 0 10.1411 -6.85918 0 10.145 -6.85081 0 
10.1488 -6.84244 0 10.1526 -6.83406 0 10.1566 -6.82567 0 
10.1604 -6.8173 0 10.1643 -6.80893 0 10.1682 -6.80057 0 
10.1721 -6.7922 0 10.176 -6.78383 0 10.1799 -6.77547 0 
10.1838 -6.76711 0 10.1878 -6.75874 0 10.1917 -6.75038 0 
10.1957 -6.74199 0 10.1996 -6.73364 0 10.2036 -6.72528 0 
10.2076 -6.71692 0 10.2115 -6.70857 0 10.2155 -6.70022 0 
10.2195 -6.69187 0 10.2235 -6.68353 0 10.2275 -6.67518 0 
10.2315 -6.66684 0 10.2355 -6.6585 0 10.2396 -6.65015 0 
10.2436 -6.64181 0 10.2476 -6.63348 0 10.2517 -6.62515 0 
10.2557 -6.61683 0 10.2597 -6.6085 0 10.2638 -6.60019 0 
10.2679 -6.59187 0 10.2719 -6.58356 0 10.276 -6.57525 0 
10.2801 -6.56692 0 10.2842 -6.55862 0 10.2883 -6.55031 0 
10.2924 -6.54202 0 10.2965 -6.53374 0 10.3006 -6.52544 0 
10.3047 -6.51716 0 10.3088 -6.50889 0 10.3129 -6.50061 0 
10.317 -6.49234 0 10.3212 -6.48405 0 10.3254 -6.47579 0 
10.3295 -6.46753 0 10.3336 -6.45928 0 10.3378 -6.45104 0 
10.3419 -6.44279 0 10.3461 -6.43455 0 10.3502 -6.42632 0 
10.3544 -6.41809 0 10.3586 -6.40987 0 10.3627 -6.40165 0 
10.367 -6.39342 0 10.3711 -6.38521 0 10.3753 -6.37701 0 
10.3795 -6.36881 0 10.3837 -6.36062 0 10.3879 -6.35243 0 
10.3921 -6.34426 0 10.3963 -6.33608 0 10.4005 -6.32791 0 
10.4047 -6.31975 0 10.4089 -6.31157 0 10.4132 -6.30342 0 
10.4174 -6.29528 0 10.4216 -6.28714 0 10.4258 -6.27901 0 
10.43 -6.27088 0 10.4343 -6.26277 0 10.4385 -6.25464 0 
10.4427 -6.24655 0 10.447 -6.23844 0 10.4512 -6.23034 0 
10.4555 -6.22224 0 10.4597 -6.21416 0 10.464 -6.20609 0 
10.4682 -6.19802 0 10.4725 -6.18996 0 10.4767 -6.18191 0 
10.481 -6.17386 0 10.4852 -6.16582 0 10.4895 -6.1578 0 
10.4937 -6.14977 0 10.4981 -6.14174 0 10.5023 -6.13372 0 
10.5066 -6.12572 0 10.5109 -6.11773 0 10.5152 -6.10974 0 
10.5194 -6.10176 0 10.5237 -6.09379 0 10.528 -6.08583 0 
10.5322 -6.07787 0 10.5365 -6.06992 0 10.5409 -6.06196 0 
10.5452 -6.05403 0 10.5495 -6.04611 0 10.5538 -6.03819 0 
10.558 -6.03028 0 10.5623 -6.02238 0 10.5666 -6.01449 0 
10.5709 -6.0066 0 10.5752 -5.99873 0 10.5795 -5.99086 0 
10.5838 -5.983 0 10.5881 -5.97513 0 10.5925 -5.96729 0 
10.5967 -5.95945 0 10.6011 -5.95163 0 10.6054 -5.94381 0 
10.6097 -5.936 0 10.614 -5.92821 0 10.6183 -5.92041 0 
10.6226 -5.91263 0 10.6269 -5.90486 0 10.6313 -5.89707 0 
10.6356 -5.88932 0 10.6399 -5.88158 0 10.6442 -5.87383 0 
10.6485 -5.86611 0 10.6528 -5.85839 0 10.6571 -5.85068 0 
10.6614 -5.84298 0 10.6658 -5.83529 0 10.6701 -5.8276 0 
10.6744 -5.81993 0 10.6788 -5.81225 0 10.6831 -5.80459 0 
10.6874 -5.79695 0 10.6917 -5.78931 0 10.696 -5.78168 0 
10.7004 -5.77407 0 10.7047 -5.76647 0 10.709 -5.75887 0 
10.7133 -5.75128 0 10.7177 -5.74371 0 10.722 -5.73612 0 
10.7263 -5.72855 0 10.7307 -5.721 0 10.735 -5.71347 0 
10.7393 -5.70594 0 10.7436 -5.69842 0 10.7479 -5.69091 0 
10.7523 -5.68341 0 10.7566 -5.67593 0 10.7609 -5.66844 0 
10.7653 -5.66096 0 10.7696 -5.65349 0 10.774 -5.64604 0 
10.7783 -5.63861 0 10.7826 -5.63118 0 10.7869 -5.62376 0 
10.7912 -5.61635 0 10.7956 -5.60895 0 10.7999 -5.60156 0 
10.8042 -5.59419 0 10.8085 -5.58682 0 10.8129 -5.57944 0 
10.8172 -5.5721 0 10.8216 -5.56476 0 10.8259 -5.55743 0 
10.8302 -5.55012 0 10.8345 -5.54282 0 10.8389 -5.53552 0 
10.8432 -5.52823 0 10.8475 -5.52096 0 10.8518 -5.5137 0 
10.8562 -5.50643 0 10.8605 -5.49919 0 10.8649 -5.49196 0 
10.8692 -5.48474 0 10.8735 -5.47753 0 10.8778 -5.47034 0 
10.8822 -5.46315 0 10.8865 -5.45596 0 10.8908 -5.44879 0 
10.8951 -5.44164 0 10.8995 -5.4345 0 10.9038 -5.42736 0 
10.9081 -5.42023 0 10.9124 -5.41312 0 10.9168 -5.40602 0 
10.9211 -5.39893 0 10.9254 -5.39185 0 10.9297 -5.38477 0 
10.9341 -5.37771 0 10.9384 -5.37067 0 10.9427 -5.36364 0 
10.947 -5.35661 0 10.9513 -5.34959 0 10.9557 -5.34259 0 
10.96 -5.3356 0 10.9643 -5.32862 0 10.9687 -5.32165 0 
10.973 -5.31469 0 10.9773 -5.30774 0 10.9816 -5.3008 0 
10.9859 -5.29387 0 10.9902 -5.28696 0 10.9946 -5.28006 0 
10.9989 -5.27317 0 11.0032 -5.26629 0 11.0075 -5.25942 0 
11.0119 -5.25257 0 11.0162 -5.24572 0 11.0205 -5.23888 0 
11.0248 -5.23206 0 11.0291 -5.22525 0 11.0334 -5.21845 0 
11.0377 -5.21165 0 11.0421 -5.20488 0 11.0464 -5.19811 0 
11.0507 -5.19136 0 11.055 -5.18462 0 11.0593 -5.17788 0 
11.0636 -5.17115 0 11.068 -5.16445 0 11.0723 -5.15775 0 
11.0766 -5.15106 0 11.0809 -5.14439 0 11.0852 -5.13773 0 
11.0895 -5.13108 0 11.0938 -5.12443 0 11.0982 -5.1178 0 
11.1025 -5.11118 0 11.1068 -5.10458 0 11.1111 -5.09798 0 
11.1154 -5.0914 0 11.1197 -5.08483 0 11.124 -5.07827 0 
11.1283 -5.07172 0 11.1327 -5.06519 0 11.137 -5.05866 0 
11.1413 -5.05214 0 11.1456 -5.04564 0 11.1499 -5.03916 0 
11.1542 -5.03267 0 11.1585 -5.0262 0 11.1628 -5.01975 0 
11.1671 -5.01331 0 11.1714 -5.00688 0 11.1757 -5.00045 0 
11.1801 -4.99404 0 11.1843 -4.98764 0 11.1887 -4.98126 0 
11.193 -4.97489 0 11.1973 -4.96852 0 11.2016 -4.96217 0 
11.2059 -4.95583 0 11.2102 -4.9495 0 11.2145 -4.94319 0 
11.2188 -4.93688 0 11.2231 -4.9306 0 11.2274 -4.92431 0 
11.2318 -4.91804 0 11.2361 -4.91178 0 11.2404 -4.90554 0 
11.2447 -4.89931 0 11.249 -4.89308 0 11.2533 -4.88687 0 
11.2576 -4.88068 0 11.2619 -4.87448 0 11.2662 -4.86831 0 
11.2705 -4.86215 0 11.2748 -4.85599 0 11.2791 -4.84985 0 
11.2834 -4.84372 0 11.2877 -4.8376 0 11.2921 -4.8315 0 
11.2964 -4.82541 0 11.3007 -4.81932 0 11.305 -4.81325 0 
11.3093 -4.80719 0 11.3136 -4.80115 0 11.3179 -4.79511 0 
11.3222 -4.78909 0 11.3266 -4.78308 0 11.3309 -4.77708 0 
11.3352 -4.77108 0 11.3395 -4.7651 0 11.3438 -4.75914 0 
11.3481 -4.75319 0 11.3524 -4.74725 0 11.3567 -4.74132 0 
11.3611 -4.7354 0 11.3654 -4.72949 0 11.3697 -4.7236 0 
11.374 -4.71772 0 11.3783 -4.71184 0 11.3826 -4.70599 0 
11.387 -4.70014 0 11.3913 -4.6943 0 11.3956 -4.68847 0 
11.3999 -4.68266 0 11.4042 -4.67685 0 11.4085 -4.67106 0 
11.4129 -4.66529 0 11.4172 -4.65952 0 11.4215 -4.65377 0 
11.4258 -4.64802 0 11.4302 -4.64229 0 11.4345 -4.63657 0 
11.4388 -4.63086 0 11.4431 -4.62516 0 11.4475 -4.61947 0 
11.4518 -4.6138 0 11.4561 -4.60814 0 11.4605 -4.60249 0 
11.4648 -4.59685 0 11.4691 -4.59122 0 11.4734 -4.5856 0 
11.4778 -4.57999 0 11.4821 -4.5744 0 11.4864 -4.56882 0 
11.4908 -4.56325 0 11.4951 -4.55769 0 11.4995 -4.55215 0 
11.5038 -4.54661 0 11.5081 -4.54109 0 11.5125 -4.53557 0 
11.5168 -4.53007 0 11.5212 -4.52458 0 11.5255 -4.5191 0 
11.5299 -4.51364 0 11.5342 -4.50818 0 11.5385 -4.50273 0 
11.5429 -4.4973 0 11.5472 -4.49188 0 11.5516 -4.48647 0 
11.5559 -4.48107 0 11.5603 -4.47568 0 11.5646 -4.47031 0 
11.569 -4.46495 0 11.5734 -4.4596 0 11.5777 -4.45425 0 
11.5821 -4.44892 0 11.5864 -4.44361 0 11.5908 -4.4383 0 
11.5952 -4.43301 0 11.5995 -4.42772 0 11.6039 -4.42245 0 
11.6083 -4.41718 0 11.6126 -4.41193 0 11.617 -4.40669 0 
11.6214 -4.40146 0 11.6258 -4.39625 0 11.6301 -4.39105 0 
11.6345 -4.38585 0 11.6389 -4.38067 0 11.6433 -4.3755 0 
11.6477 -4.37034 0 11.6521 -4.36519 0 11.6564 -4.36005 0 
11.6608 -4.35493 0 11.6652 -4.34981 0 11.6696 -4.34471 0 
11.674 -4.33961 0 11.6784 -4.33453 0 11.6828 -4.32946 0 
11.6872 -4.3244 0 11.6916 -4.31936 0 11.696 -4.31431 0 
11.7004 -4.30929 0 11.7048 -4.30428 0 11.7092 -4.29928 0 
11.7136 -4.29428 0 11.7181 -4.2893 0 11.7225 -4.28433 0 
11.7269 -4.27937 0 11.7313 -4.27442 0 11.7357 -4.26948 0 
11.7401 -4.26455 0 11.7446 -4.25963 0 11.749 -4.25474 0 
11.7534 -4.24984 0 11.7579 -4.24496 0 11.7623 -4.24009 0 
11.7668 -4.23523 0 11.7712 -4.23038 0 11.7756 -4.22554 0 