# vtk DataFile Version 3.0
vtk output
ASCII
DATASET POLYDATA
POINTS 724 float
10.1677 -10.5944 11.208 10.3937 -11.5454 11.1019 9.95138 -9.43682 11.4598 
10.6184 -12.3339 11.1021 9.80037 -8.2967 11.8315 10.1312 -9.89078 11.6817 
10.8501 -13.0215 11.1886 9.71769 -7.17531 12.3232 10.3368 -10.7605 11.6041 
9.99216 -8.9036 12.0209 10.5381 -11.4875 11.5935 10.7324 -12.1588 11.5833 
11.0625 -13.5768 11.3394 9.88653 -7.89527 12.409 9.70727 -6.12037 12.9107 
10.2257 -9.78199 12.1001 10.9172 -12.6026 11.7366 10.4511 -10.6705 12.0735 
9.83776 -6.89044 12.8945 10.0828 -8.69172 12.4987 11.2682 -14.0556 11.5453 
9.76435 -5.1163 13.5949 10.6882 -11.4968 12.0764 11.1155 -13.0991 11.8752 
9.83657 -5.88091 13.4485 9.99109 -7.58851 12.9633 10.2962 -9.55423 12.547 
10.9171 -12.1028 12.2236 11.4664 -14.4668 11.7996 10.5139 -10.4228 12.5345 
9.85547 -4.33759 14.2179 9.95479 -6.46583 13.5106 10.166 -8.3914 13.0035 
11.3132 -13.5415 12.0655 9.93383 -5.2618 14.0508 10.731 -11.1403 12.5911 
11.1418 -12.6558 12.3848 10.3576 -9.24381 13.0219 10.0917 -7.2077 13.5207 
9.9808 -3.59168 14.8973 11.6623 -14.8253 12.1065 11.5142 -13.986 12.2805 
10.9537 -11.7485 12.7267 10.0065 -4.42201 14.6405 10.5576 -10.0606 13.0346 
10.0603 -6.00305 14.0758 10.2484 -8.01856 13.526 11.3737 -13.2069 12.5622 
10.7693 -10.778 13.1057 10.0964 -5.03288 14.6432 10.1939 -6.78861 14.0714 
10.4213 -8.85879 13.5307 11.1853 -12.3421 12.8694 11.8265 -15.0871 12.4072 
10.1175 -3.64308 15.2865 10.1325 -2.87453 15.6243 11.6417 -14.0101 12.6426 
10.61 -9.67573 13.5512 10.9946 -11.4333 13.2217 10.2034 -5.70046 14.6478 
10.34 -7.61087 14.0624 11.4374 -13.0153 12.9736 10.1837 -4.13407 15.2847 
11.8383 -14.4718 12.8609 10.817 -10.4281 13.6169 10.5008 -8.45643 14.0588 
10.3212 -6.43778 14.6316 11.2367 -12.1002 13.3281 10.2601 -4.69863 15.2665 
10.2637 -3.09203 15.9312 10.2812 -2.2547 16.2942 12.0044 -15.3257 12.7764 
11.6446 -13.518 13.1202 10.6795 -9.2892 14.0773 11.0433 -11.1458 13.7061 
10.4529 -7.23303 14.612 10.3513 -5.34527 15.2375 10.3326 -3.64071 15.9163 
11.4657 -12.6661 13.4682 11.8424 -13.9737 13.3048 10.4209 -1.69204 16.9096 
10.4079 -2.6243 16.5309 12.0265 -14.7085 13.2523 10.8792 -10.0854 14.1276 
10.6006 -8.06658 14.6018 10.457 -6.06583 15.2027 10.4072 -4.2771 15.8642 
11.2752 -11.7881 13.8227 12.1776 -15.5082 13.1794 11.6934 -13.2015 13.6266 
10.4791 -3.28353 16.478 10.7675 -8.90765 14.6125 10.4956 -4.96291 15.8116 
10.5776 -6.85004 15.1714 11.0965 -10.8178 14.212 11.5161 -12.3966 13.9567 
10.5315 -1.88691 17.1646 11.9516 -13.916 13.7115 10.5797 -1.04166 17.6029 
10.5567 -3.95855 16.4138 12.1686 -14.718 13.6829 10.5973 -5.69889 15.7649 
10.7149 -7.67529 15.1551 10.956 -9.7189 14.6553 10.5766 -2.44898 17.0847 
11.3315 -11.5097 14.3144 12.3333 -15.6254 13.5759 11.7845 -13.0927 14.0519 
10.6457 -4.65569 16.357 10.6379 -3.06945 17.01 10.7121 -6.47703 15.732 
10.8716 -8.51476 15.162 11.1675 -10.4966 14.7224 11.592 -12.2238 14.4031 
12.0535 -13.8393 14.1145 10.6822 -1.45953 17.7554 10.7219 -0.427957 18.2253 
10.7135 -3.72291 16.9416 12.2873 -14.6363 14.1147 10.7458 -5.37603 16.3177 
10.8425 -7.28971 15.7168 11.0507 -9.35174 15.1922 10.7279 -2.15324 17.627 
12.4733 -15.6907 13.9573 11.4042 -11.2608 14.792 11.8612 -12.9325 14.4796 
10.8183 -0.668886 18.4236 10.8027 -4.38329 16.9 10.7902 -2.82845 17.5277 
10.8572 -6.13098 16.2934 10.9915 -8.12908 15.7198 11.2547 -10.1783 15.2355 
12.1201 -13.6267 14.5432 11.6565 -11.9811 14.8651 10.8408 -1.29644 18.2658 
12.462 -14.9572 14.4 10.883 0.309821 18.9383 10.8711 -3.45706 17.4802 
10.9012 -5.07388 16.8726 10.9826 -6.92426 16.2827 11.1616 -8.98469 15.7364 
11.9092 -12.6447 14.9414 10.8817 -1.98597 18.1189 11.4803 -10.9561 15.2927 
12.3335 -14.1549 14.6798 12.6296 -15.718 14.4114 10.9678 -0.155856 19.027 
10.9613 -4.09922 17.4496 11.0101 -5.80295 16.8575 10.9512 -2.58033 18.0658 
11.1252 -7.75391 16.2832 12.1413 -13.2062 15.0487 11.3539 -9.81994 15.7702 
11.7199 -11.6642 15.3649 10.9793 -1.05717 18.7407 12.5746 -14.8016 14.8621 
11.0344 1.02899 19.6164 11.0595 -4.77235 17.4309 11.0325 -3.1819 18.0297 
11.1321 -6.57354 16.8516 12.3719 -13.7816 15.1557 11.2863 -8.59933 16.2971 
11.5673 -10.5993 15.8243 11.9607 -12.2853 15.4625 11.0394 -1.67341 18.6703 
12.7711 -15.7011 14.851 11.0869 -0.185228 19.3537 11.1371 0.761001 19.8236 
11.1222 -3.8108 18.0042 11.1673 -5.48304 17.4222 11.2694 -7.37965 16.8552 
11.1118 -2.26429 18.6237 11.468 -9.4278 16.3293 12.2038 -12.8811 15.5666 
11.7973 -11.3007 15.9043 12.5675 -14.212 15.3381 11.1421 -0.755987 19.2998 
12.7521 -14.9274 15.3083 11.2065 1.83308 20.3888 11.2199 -4.47336 17.9901 
11.2875 -6.2317 17.4225 11.1935 -2.87077 18.5868 11.4238 -8.20301 16.8724 
11.6717 -10.2073 16.386 12.0398 -11.9522 15.9989 12.4309 -13.3871 15.7187 
11.2032 -1.32803 19.2425 12.9211 -15.6398 15.3511 11.2369 0.344092 19.9607 
11.3277 -5.17213 17.9866 11.283 -3.50504 18.5611 11.4219 -7.01231 17.433 
11.598 -9.01948 16.9083 11.3076 1.42182 20.5404 11.2744 -1.91844 19.1898 
12.6746 -14.0514 15.8058 11.8968 -10.9357 16.4618 12.2816 -12.5324 16.1251 
11.2972 -0.261573 19.903 12.8786 -14.7697 15.8211 11.3806 2.58122 21.1528 
11.3815 -4.17259 18.5479 11.4475 -5.9038 17.9939 11.355 -2.53723 19.1461 
11.5724 -7.81303 17.457 11.795 -9.81162 16.9629 12.1358 -11.5985 16.5627 
11.3602 -0.879201 19.8274 12.5362 -13.1779 16.2239 11.3924 0.8873 20.5873 
13.0582 -15.5411 15.8483 11.4903 -4.86986 18.5493 11.4448 -3.19145 19.1148 
11.5806 -6.66392 18.0123 12.7824 -13.868 16.2957 11.742 -8.62189 17.4954 
11.4327 -1.51277 19.7577 11.4778 2.05858 21.2494 12.0143 -10.5576 17.038 
12.3895 -12.273 16.6546 11.4527 0.24129 20.505 12.999 -14.6124 16.3238 
11.563 3.26973 21.9112 11.5448 -3.87269 19.1027 11.6109 -5.59407 18.5633 
11.5146 -2.18129 19.6972 11.729 -7.4479 18.0421 11.5167 -0.423174 20.4047 
11.9334 -9.4194 17.5491 12.6458 -12.9619 16.7343 12.2541 -11.289 17.1139 
11.5517 1.43206 21.2232 13.1847 -15.4076 16.3498 11.607 -2.86731 19.6626 
11.6553 -4.57801 19.1083 11.5903 -1.12807 20.3039 11.7438 -6.34301 18.5883 
12.8927 -13.6798 16.7943 11.8956 -8.24695 18.0829 11.6098 0.728772 21.1001 
12.1483 -10.2078 17.6074 11.654 2.65651 21.9524 12.5059 -12.0108 17.1862 
13.1134 -14.4373 16.8297 11.6763 -1.83085 20.239 11.7098 -3.57155 19.6529 
11.6728 -0.045508 20.9411 11.7769 -5.30462 19.128 11.754 3.90206 22.6486 
11.8914 -7.11401 18.6224 12.0829 -9.05794 18.1277 12.7591 -12.734 17.2511 
11.7149 1.93086 21.8438 12.383 -10.9793 17.6656 13.3019 -15.2409 16.8581 
11.7631 1.03317 21.6035 11.7525 -0.768502 20.8412 11.7722 -2.54255 20.2061 
11.8226 -4.29411 19.6628 13.0027 -13.4706 17.305 11.9104 -6.04958 19.1581 
12.0558 -7.90772 18.6607 12.2921 -9.86675 18.1732 12.6285 -11.7357 17.7227 
11.8359 3.17103 22.6182 13.2225 -14.2341 17.3462 11.8599 2.07016 22.2626 
11.8372 0.294646 21.4739 11.8424 -1.48313 20.7798 11.8777 -3.2708 20.2 
11.9456 -5.03146 19.6878 12.0573 -6.8134 19.1932 12.8749 -12.4834 17.7781 
11.9471 4.48246 23.3307 12.2392 -8.71756 18.6986 12.5194 -10.6619 18.2186 
13.4105 -15.0424 17.3733 11.9679 3.00547 22.8866 11.9323 1.33797 22.1324 
11.9218 -0.41052 21.3854 11.9409 -2.21224 20.7497 13.1119 -13.2334 17.8294 
11.9925 -4.01494 20.2148 12.0794 -5.77899 19.721 12.2199 -7.59579 19.2289 
12.7563 -11.4407 18.2662 12.4423 -9.53006 18.7358 12.0513 4.01721 23.4382 
13.3275 -13.9994 17.8763 12.0119 0.652157 22.0269 12.0429 2.34973 22.8067 
12.0133 -1.12537 21.3258 12.0482 -2.96298 20.7468 12.1164 -4.76767 20.244 
12.2256 -6.53567 19.7567 12.9934 -12.2062 18.3166 12.3996 -8.39304 19.2626 
12.6615 -10.3345 18.774 12.1618 5.09476 24.014 13.5111 -14.8153 17.8931 
12.1542 3.43836 23.4752 12.0969 -0.0364377 21.94 12.1166 1.6934 22.6996 
12.1125 -1.86692 21.2956 13.2215 -12.9663 18.3688 12.1643 -3.73035 20.766 
12.2499 -5.52011 20.28 12.3863 -7.30273 19.7905 12.8882 -11.1261 18.8161 
12.597 -9.1969 19.2952 12.2589 4.51712 24.0598 13.43 -13.7313 18.4235 
12.2299 2.77268 23.3881 12.1943 1.03272 22.5931 12.1879 -0.749965 21.8765 
12.2206 -2.63831 21.2943 12.2885 -4.5008 20.7991 12.3953 -6.27046 20.3162 
13.1146 -11.9041 18.865 12.5627 -8.08084 19.8218 12.8074 -9.99936 19.3294 
13.6035 -14.5635 18.4117 12.3621 5.65808 24.5822 12.3464 3.87919 24.0373 
12.3026 2.10749 23.2723 12.2769 0.35346 22.4988 13.3323 -12.671 18.9218 
12.2867 -1.50025 21.8434 12.3371 -3.42871 21.317 12.4215 -5.26117 20.8379 
12.5544 -7.02105 20.3491 13.0232 -10.7951 19.3699 12.7538 -8.86708 19.8516 
12.4564 5.01801 24.6026 13.5315 -13.4301 18.9897 12.4194 3.20305 23.9421 
12.3782 1.44131 23.1556 12.3658 -0.357327 22.4283 12.3945 -2.28836 21.8418 
12.4611 -4.21871 21.3543 12.5661 -6.00745 20.8748 13.2376 -11.5802 19.4202 
12.7271 -7.77679 20.378 12.9544 -9.65698 19.884 13.6868 -14.2941 18.9178 
12.5492 6.1856 25.0555 12.5376 4.34208 24.5585 12.4901 2.52843 23.8215 
12.4584 0.760877 23.052 12.463 -1.11094 22.3899 13.4436 -12.3518 19.485 
12.5106 -3.09934 21.8674 12.5939 -4.98993 21.3961 12.7231 -6.74303 20.9064 
13.1578 -10.446 19.9245 12.9107 -8.53846 20.4058 13.76 -14.0174 19.3958 
13.1006 -9.30625 20.4377 12.8912 -7.47485 20.9336 12.7372 -5.73586 21.4345 
12.6342 -3.90922 21.9093 12.6084 3.64911 24.4611 12.5632 1.85602 23.6992 
12.5691 -1.90843 22.3868 12.5451 0.0518391 22.9737 12.645 5.51499 25.0746 
13.3581 -11.226 19.9784 13.6332 -13.102 19.5756 13.0666 -8.20784 20.9599 
13.2903 -10.0767 20.4797 12.8914 -6.45907 21.4655 12.7662 -4.69481 21.9552 
12.6838 -2.73416 22.4145 13.5491 -11.9855 20.0545 12.6398 -0.699719 22.9299 
12.6411 1.17545 23.5905 12.6775 2.96194 24.3412 12.7249 4.8182 25.0308 
12.7249 6.68053 25.4532 13.829 -13.7147 19.8788 13.2448 -8.94669 20.9919 
13.054 -7.16834 21.4911 13.4749 -10.8374 20.5402 12.908 -5.44472 21.9959 
12.8067 -3.56279 22.4612 12.7429 -1.49681 22.9247 12.7248 0.471203 23.5072 
12.7489 2.28179 24.2197 12.7957 4.11155 24.941 13.7247 -12.6959 20.1752 
12.826 6.00511 25.4858 13.2206 -7.87249 21.5165 13.4203 -9.68817 21.0372 
13.0589 -6.15982 22.0278 12.938 -4.36478 22.5131 12.8549 -2.33097 22.9534 
[...]
POINT_DATA 724
VECTORS velocity double
1.03177 -1.56327 1.50248 1.2074 -1.03579 1.59487 0.819694 -2.08191 1.39785 
1.33668 -0.537741 1.64933 0.648597 -2.50219 1.35124 0.867114 -1.97048 1.34831 
1.42586 -0.0806228 1.66235 0.551407 -2.90656 1.39538 1.02034 -1.57611 1.404 
0.695544 -2.36553 1.27045 1.14822 -1.17781 1.45166 1.26251 -0.748437 1.49951 
1.4745 0.282956 1.63718 0.574177 -2.70672 1.2704 0.547884 -3.35662 1.53171 
0.800251 -2.1006 1.22327 1.3125 -0.471326 1.47579 0.942945 -1.72681 1.24668 
0.52345 -3.06241 1.35353 0.622522 -2.50435 1.15623 1.49398 0.577336 1.58073 
0.632061 -3.9137 1.74268 1.08343 -1.28052 1.28593 1.36283 -0.139126 1.45299 
0.556644 -3.50412 1.52861 0.519247 -2.84988 1.1947 0.708336 -2.26258 1.08313 
1.16261 -0.921569 1.26719 1.48896 0.804447 1.49757 0.8316 -1.93785 1.07414 
0.751172 -4.46416 1.95052 0.512644 -3.24986 1.35101 0.543569 -2.64209 1.0484 
1.38792 0.148512 1.40161 0.61768 -3.85221 1.64895 0.937469 -1.59921 1.07011 
1.22319 -0.56183 1.23767 0.605447 -2.42601 0.943567 0.478851 -2.98651 1.15133 
0.897187 -5.09087 2.17183 1.46268 0.973816 1.38893 1.39763 0.426394 1.3336 
1.01518 -1.26501 1.04396 0.745837 -4.42262 1.885 0.696326 -2.17253 0.890783 
0.530689 -3.45097 1.39565 0.472986 -2.76517 0.966632 1.26973 -0.18636 1.19722 
0.7857 -1.88626 0.855386 0.646486 -3.98888 1.65521 0.462065 -3.11803 1.14714 
0.503191 -2.5714 0.821044 1.08634 -0.888445 1.01961 1.42554 1.07427 1.27907 
0.894071 -5.05764 2.11989 1.04968 -5.7484 2.38672 1.34198 0.383961 1.19707 
0.565063 -2.36533 0.723542 0.867574 -1.55819 0.823895 0.548525 -3.57776 1.40547 
0.422096 -2.86554 0.919489 1.16849 -0.408598 1.01808 0.798882 -4.63714 1.92427 
1.33738 0.656395 1.12215 0.64074 -2.11746 0.658675 0.418107 -2.67451 0.729198 
0.459678 -3.21684 1.14622 0.956295 -1.14797 0.812222 0.693227 -4.18665 1.69777 
1.00423 -5.53523 2.26854 1.17502 -6.29728 2.55741 1.37128 1.1417 1.14364 
1.2056 -0.0550866 0.986497 0.449708 -2.4998 0.587085 0.726113 -1.79826 0.619838 
0.391887 -2.93542 0.894494 0.581545 -3.73345 1.44231 0.88852 -5.02191 2.04266 
1.01833 -0.762602 0.789556 1.21884 0.247804 0.934758 1.27383 -6.72047 2.69179 
1.08914 -5.9158 2.37699 1.28086 0.742048 0.977427 0.50854 -2.28819 0.490625 
0.355549 -2.73403 0.669661 0.473801 -3.32373 1.17053 0.757918 -4.46041 1.78051 
0.804195 -1.43762 0.593453 1.30598 1.16878 0.998582 1.06425 -0.381152 0.761013 
0.945501 -5.28224 2.10563 0.355919 -2.5762 0.488469 0.625672 -3.92057 1.50003 
0.381407 -2.99589 0.898393 0.580827 -2.01406 0.430089 0.874827 -1.03756 0.574405 
1.21802 -6.48429 2.57307 1.13327 0.141985 0.772462 1.36647 -7.0682 2.82382 
0.80055 -4.65633 1.82316 1.20167 0.682888 0.818029 0.498748 -3.44064 1.20961 
0.315975 -2.76523 0.646238 0.389241 -2.40456 0.357552 1.09797 -5.97156 2.35371 
0.660895 -1.66435 0.397481 1.2382 1.16322 0.861013 0.961033 -0.526559 0.586325 
0.657748 -4.06746 1.53249 0.961851 -5.38194 2.09912 0.386274 -3.05693 0.92258 
0.285242 -2.60613 0.432435 0.449084 -2.16679 0.273959 0.755115 -1.21054 0.396962 
1.04333 0.0292068 0.61605 1.26492 -6.67304 2.63123 1.43597 -7.23987 2.93721 
0.819105 -4.76943 1.825 1.1133 0.571763 0.661002 0.52229 -3.54881 1.24057 
0.296976 -2.78338 0.653105 0.291817 -2.45922 0.268051 1.12088 -6.09432 2.36764 
1.17085 1.13678 0.735041 0.532689 -1.82629 0.235562 0.848906 -0.696237 0.418639 
1.36633 -6.9877 2.80693 0.678945 -4.18971 1.54646 0.974349 -5.47897 2.09469 
0.398452 -3.12198 0.952831 0.238742 -2.60232 0.41538 0.335234 -2.25707 0.158801 
0.930386 -0.176706 0.450566 0.625137 -1.40112 0.232167 1.24784 -6.59461 2.58616 
1.07513 0.723698 0.579483 1.50581 -7.26495 3.08299 0.834719 -4.89164 1.82819 
0.542271 -3.65823 1.26429 0.292721 -2.80247 0.678521 0.218335 -2.46315 0.223284 
0.712041 -0.939755 0.248666 1.10775 -6.0668 2.32588 0.405326 -1.964 0.102826 
0.960761 0.189128 0.445285 1.0889 1.08616 0.594979 1.40306 -6.98534 2.88833 
0.695924 -4.32022 1.55772 0.413266 -3.20068 0.984315 0.976039 -5.54229 2.07807 
0.213058 -2.58543 0.429684 0.772428 -0.526217 0.260416 0.237087 -2.29813 0.0886339 
0.485937 -1.59201 0.0860865 1.24322 -6.55063 2.57596 0.976072 0.581599 0.43181 
1.5704 -7.15397 3.26379 0.559172 -3.78214 1.28481 0.842172 -4.99942 1.8237 
0.29795 -2.83875 0.715147 0.824781 -0.108885 0.277669 0.167768 -2.43609 0.221912 
0.286292 -2.0583 0.010499 0.55877 -1.19167 0.0884566 1.11174 -6.1008 2.32616 
1.00823 1.02335 0.47116 1.35545 -6.78608 2.81123 1.49707 -6.95899 3.13409 
0.70623 -4.45022 1.56264 0.428264 -3.30298 1.01526 0.203981 -2.57933 0.468173 
0.981326 -5.62162 2.07873 0.160271 -2.29186 0.0672176 0.626488 -0.76819 0.104275 
0.350006 -1.74169 -0.0242425 0.834781 0.17687 0.264695 1.23563 -6.4677 2.575 
0.896688 0.609657 0.321291 1.6511 -6.96454 3.5462 0.571056 -3.91837 1.29977 
0.308548 -2.90638 0.757157 0.848041 -5.11211 1.82556 0.139131 -2.40135 0.256389 
0.185411 -2.09495 -0.0323161 0.41956 -1.36332 -0.0294472 0.666933 -0.400712 0.111757 
1.1126 -6.0988 2.33536 0.915225 0.941352 0.345967 1.39202 -6.7139 2.93189 
0.440652 -3.43016 1.04186 0.712801 -4.5866 1.56806 0.206387 -2.60415 0.519907 
0.108054 -2.2542 0.0901493 1.55755 -6.81406 3.36044 0.984277 -5.67758 2.08785 
0.728427 0.0549117 0.14851 0.233937 -1.81866 -0.0848148 0.478895 -0.973705 -0.0211197 
1.26315 -6.43891 2.66537 0.788745 0.487324 0.199316 1.74206 -6.81677 3.90596 
0.578314 -4.06668 1.31113 0.3201 -3.0103 0.797287 0.851112 -5.21169 1.83286 
0.128124 -2.38543 0.3129 0.110458 -2.07855 -0.0266779 0.291873 -1.47818 -0.102323 
1.13113 -6.11208 2.39747 0.548919 -0.523885 0.00825099 1.43544 -6.61797 3.09999 
0.821888 0.853046 0.239201 0.449147 -3.58036 1.06311 0.714976 -4.71583 1.57369 
0.214421 -2.67161 0.573529 0.618991 -0.0603286 0.0514007 0.07872 -2.21312 0.143361 
0.995317 -5.7304 2.12765 1.62912 -6.71179 3.651 0.140053 -1.83696 -0.0958403 
0.362131 -1.06806 -0.0929213 1.29586 -6.38144 2.79259 0.684357 0.382385 0.103484 
1.83646 -6.75736 4.30384 0.580895 -4.21915 1.31983 0.329617 -3.14908 0.831481 
0.854722 -5.29537 1.85315 0.128319 -2.40891 0.376468 1.15266 -6.09202 2.48627 
0.0607362 -2.0366 0.0169028 0.437714 -0.616372 -0.0632211 0.19223 -1.51328 -0.126632 
1.48827 -6.54546 3.31914 0.72707 0.760198 0.149875 0.715071 -4.83387 1.58492 
0.453258 -3.74676 1.07947 1.00283 -5.73823 2.17585 0.223451 -2.78371 0.62172 
0.51295 -0.153235 -0.0198166 0.0664745 -2.19791 0.211321 1.33272 -6.32563 2.95252 
0.0735328 -1.80896 -0.067789 1.70323 -6.6797 3.97172 0.259681 -1.11912 -0.126379 
0.581201 0.286024 0.0303389 0.855374 -5.34405 1.88038 0.580253 -4.3697 1.32974 
1.16475 -6.03881 2.5707 0.335784 -3.31644 0.859119 1.91582 -6.76369 4.66289 
0.134111 -2.48175 0.437459 0.0325724 -1.99811 0.0804589 0.334777 -0.68082 -0.103476 
1.53973 -6.51779 3.55328 0.11294 -1.50814 -0.113418 0.630699 0.664923 0.0780838 
1.34154 -6.26142 3.05282 1.00652 -5.71505 2.23104 0.712511 -4.92857 1.60153 
0.45392 -3.92245 1.09408 0.410064 -0.231619 -0.0660339 0.231304 -2.9363 0.662744 
0.0648827 -2.22586 0.280173 0.0286561 -1.76865 -0.0138303 0.171508 -1.13864 -0.126537 
1.75798 -6.69712 4.24374 0.478651 0.194932 -0.0214958 1.52361 -6.46797 3.59511 
1.17115 -5.98427 2.65647 0.854566 -5.36545 1.9178 0.577021 -4.50896 1.3431 
0.33905 -3.50506 0.88291 0.141827 -2.60275 0.491267 0.240483 -0.724473 -0.115364 
1.96089 -6.78016 4.90377 0.0196887 -1.98932 0.151624 0.0525288 -1.48313 -0.0724697 
0.533555 0.569615 0.0239302 1.68184 -6.63873 4.10294 1.34663 -6.22523 3.15578 
1.01029 -5.68698 2.30061 0.709122 -5.00092 1.6277 0.311651 -0.297654 -0.0882391 
0.452201 -4.09922 1.11034 0.237611 -3.12148 0.698324 0.069571 -2.30461 0.344357 
0.0979288 -1.1385 -0.0998563 0.00134726 -1.74135 0.0534785 1.84528 -6.76039 4.61751 
0.377853 0.109937 -0.0526067 1.17964 -5.9592 2.75957 1.51873 -6.46189 3.68601 
0.855087 -5.37445 1.97078 0.573074 -4.63327 1.36436 0.340626 -3.7068 0.906869 
0.150359 -2.76703 0.538971 0.156566 -0.751973 -0.102693 0.0173594 -2.02543 0.221733 
0.00941028 -1.45771 -0.0144059 1.96262 -6.76157 4.99362 0.437456 0.477265 -0.0128961 
1.69494 -6.67129 4.24069 1.01672 -5.6757 2.38805 1.35369 -6.23484 3.27261 
0.70697 -5.05548 1.66749 0.220019 -0.351781 -0.0884824 0.449973 -4.27064 1.13294 
0.243306 -3.33133 0.732522 0.078049 -2.43332 0.402214 0.0397024 -1.13038 -0.0544755 
-0.0121856 -1.74607 0.12369 1.83534 -6.74861 4.67642 0.28075 0.0322046 -0.0642587 
1.52993 -6.50835 3.81682 1.18824 -5.97329 2.87073 0.858008 -5.38435 2.03995 
0.56997 -4.7391 1.39684 0.342155 -3.91351 0.935663 0.159617 -2.96599 0.583235 
0.0853003 -0.768673 -0.0712429 0.022138 -2.11184 0.286025 -0.0183085 -1.44967 0.0502309 
0.345218 0.390502 -0.033685 1.92041 -6.69809 4.90729 1.68503 -6.67683 4.29833 
1.36265 -6.28783 3.39264 1.02335 -5.69146 2.48381 0.138143 -0.395094 -0.0706402 
0.706565 -5.09664 1.72089 0.448538 -4.42791 1.16507 0.249413 -3.55548 0.76936 
0.0889983 -2.60512 0.454527 -0.0031959 -1.12747 0.000320575 -0.0153414 -1.79447 0.189674 
1.79885 -6.68753 4.62193 0.190189 -0.0371353 -0.0588649 1.52352 -6.54033 3.8874 
1.19469 -6.02537 2.9771 0.861286 -5.40485 2.11785 0.568023 -4.82231 1.44057 
0.344557 -4.11314 0.972374 0.16986 -3.1882 0.627347 0.0281833 -0.782815 -0.0286739 
0.0317312 -2.2461 0.343175 -0.033147 -1.47396 0.113142 0.260495 0.311434 -0.041004 
1.84736 -6.61008 4.69016 1.65636 -6.63672 4.27783 1.35752 -6.34063 3.46708 
1.02709 -5.73765 2.57504 0.706461 -5.13008 1.78243 0.0687233 -0.431189 -0.0407603 
0.447912 -4.55989 1.20683 0.256554 -3.7803 0.812033 0.101832 -2.80864 0.503627 
-0.0319636 -1.14508 0.0561072 -0.0108731 -1.8907 0.248195 0.186752 0.241064 -0.0387355 
-0.0376342 -1.54016 0.169458 0.0447463 -2.42039 0.39465 0.181313 -3.41927 0.674577 
0.347713 -4.29038 1.01763 1.50088 -6.53344 3.89395 1.18962 -6.08869 3.04895 
0.566005 -4.88119 1.4912 0.861993 -5.44356 2.19319 1.74034 -6.58622 4.46761 
-0.0149623 -0.809286 0.0173738 0.109674 -0.0968882 -0.040696 -0.000818483 -2.03195 0.299388 
-0.0483424 -1.19539 0.107099 0.116319 -3.03036 0.552944 0.264507 -3.98909 0.862022 
0.446784 -4.65654 1.25443 0.0118938 -0.477323 -0.00544794 0.704067 -5.16434 1.84269 
1.02143 -5.80128 2.64057 1.33804 -6.36718 3.48874 1.61102 -6.54614 4.18002 
1.75313 -6.51727 4.38116 0.119697 0.172855 -0.0301844 -0.0340155 -1.65112 0.217804 
0.0603303 -2.6225 0.443591 -0.0447476 -0.859743 0.0609256 0.193759 -3.64246 0.727452 
0.350144 -4.42915 1.06838 0.561659 -4.92043 1.54073 0.855117 -5.4989 2.24958 
1.17152 -6.14028 3.07684 1.46437 -6.47328 3.83749 0.0393379 -0.171583 -0.0155223 
1.6643 -6.46338 4.23052 0.0133095 -2.20903 0.345757 -0.0541937 -1.28538 0.150545 
0.13211 -3.25389 0.605849 0.271983 -4.16346 0.917997 0.442485 -4.71422 1.29964 
0.695836 -5.20704 1.88946 -0.0314153 -0.540974 0.0295235 1.0039 -5.86585 2.66924 
1.30613 -6.34666 3.45747 1.55208 -6.41562 4.0123 1.64355 -6.42866 4.00849 
0.0566364 0.100005 -0.017285 -0.0242085 -1.80248 0.259775 0.0777998 -2.83684 0.493909 
-0.0620403 -0.94079 0.0977497 0.206213 -3.83961 0.786737 0.348967 -4.51819 1.11714 
0.551373 -4.94979 1.57721 0.838556 -5.56549 2.27761 1.1416 -6.15762 3.0589 
1.41709 -6.35902 3.72284 -0.013709 -0.243674 0.00909481 1.57289 -6.33481 3.92245 
0.0303858 -2.40808 0.39138 -0.0515075 -1.41413 0.186464 0.148422 -3.46146 0.664897 
0.2763 -4.28753 0.974483 0.431398 -4.73972 1.33095 -0.0600422 -0.618611 0.0576844 
0.678204 -5.26007 1.91019 1.26469 -6.26723 3.37649 0.97683 -5.91553 2.66246 
1.48171 -6.26302 3.78201 0.00190352 0.021965 -0.00377677 1.52069 -6.34185 3.58779 
-0.00987083 -1.9826 0.298995 0.0963875 -3.04589 0.549473 -0.068561 -1.05077 0.125863 
0.216484 -3.99285 0.849689 0.340345 -4.55648 1.15233 0.531749 -4.98033 1.58899 
0.811009 -5.62765 2.26946 1.35973 -6.20167 3.55159 1.10698 -6.126 3.00831 
-0.0518968 -0.323258 0.0279943 1.46481 -6.20901 3.54359 0.0494121 -2.61178 0.440871 
-0.0423754 -1.57304 0.217666 0.16361 -3.63475 0.730144 0.273463 -4.35245 1.0208 
0.41015 -4.74806 1.33657 -0.076377 -0.71653 0.0771121 0.649321 -5.31771 1.89672 
0.941525 -5.92538 2.61823 1.22394 -6.12546 3.26363 1.40012 -6.10874 3.49912 
-0.041921 -0.0634238 0.00588165 0.00762482 -2.17568 0.340465 0.114828 -3.23091 0.612586 
1.38361 -6.24631 3.12364 -0.0666362 -1.18894 0.147881 0.220941 -4.08851 0.908305 
0.32032 -4.5557 1.16071 0.500501 -5.01705 1.56729 0.773544 -5.6662 2.22413 
1.06887 -6.02759 2.92159 1.30484 -6.01239 3.3333 -0.0772094 -0.417073 0.0386658 
1.3409 -6.04353 3.17613 -0.0284463 -1.75123 0.249573 0.0692836 -2.8015 0.498209 
0.174703 -3.75727 0.796958 0.258872 -4.36173 1.04252 -0.0826396 -0.837843 0.089488 
0.376431 -4.75438 1.30754 0.608948 -5.36592 1.8455 0.90101 -5.877 2.5402 
1.1805 -5.93871 3.10657 -0.0740273 -0.159593 0.00826906 0.0271394 -2.36436 0.389435 
1.24994 -5.86601 3.0812 -0.0581038 -1.34952 0.169098 0.130847 -3.37382 0.681869 
0.214727 -4.12178 0.948807 1.25365 -6.14687 2.69192 0.286188 -4.53526 1.13151 
1.02724 -5.86596 2.79669 0.456926 -5.05508 1.50788 0.727764 -5.66027 2.14267 
-0.0913611 -0.52961 0.041717 -0.0110631 -1.9334 0.288191 1.22537 -5.9158 2.78002 
0.0882467 -2.95822 0.564722 1.12661 -5.74221 2.89769 0.177296 -3.81841 0.854385 
-0.0806495 -0.980751 0.0995831 0.228737 -4.33167 1.02564 0.854467 -5.76073 2.42488 
0.32977 -4.76606 1.24009 0.558121 -5.38667 1.75692 -0.0947441 -0.271093 0.00283116 
1.15307 -5.69821 2.75211 0.0471514 -2.5288 0.449122 -0.0444756 -1.52055 0.195999 
0.140765 -3.45962 0.749867 0.972885 -5.66089 2.61815 0.193099 -4.10118 0.954948 
0.674677 -5.59468 2.02613 0.23751 -4.51412 1.06026 0.402356 -5.08355 1.41217 
1.11577 -6.02423 2.24439 -0.0957779 -0.663082 0.0414615 1.04219 -5.53293 2.61545 
0.00830302 -2.10024 0.338233 0.103305 -3.06346 0.636219 1.10061 -5.77009 2.36939 
0.798258 -5.58135 2.26544 0.166328 -3.81793 0.886268 -0.0719884 -1.13702 0.114092 
0.181755 -4.28583 0.962258 0.499769 -5.36498 1.63644 0.271718 -4.7825 1.13626 
-0.104722 -0.403124 -0.00647733 1.04552 -5.52304 2.39421 -0.0272895 -1.68419 0.234355 
0.898821 -5.42509 2.37805 0.0652223 -2.64859 0.518264 0.139805 -3.48004 0.802361 
0.153484 -4.04854 0.914597 0.615745 -5.46317 1.87716 0.175886 -4.50239 0.948861 
0.340406 -5.09122 1.28717 0.972695 -5.87178 1.79208 -0.0915832 -0.814952 0.0455697 
0.946806 -5.31531 2.29497 0.0276757 -2.23137 0.401085 0.109984 -3.09939 0.700224 
-0.058444 -1.28922 0.13906 0.732089 -5.34699 2.06176 0.967249 -5.60532 1.93894 
0.138355 -3.77325 0.878151 0.119345 -4.24443 0.852752 0.439036 -5.29007 1.49404 
0.205125 -4.79524 1.00169 0.929767 -5.34261 2.01023 -0.104269 -0.561504 -0.0100442 
0.815437 -5.16625 2.0961 -0.00793139 -1.82484 0.288591 0.0765343 -2.69116 0.583895 
0.1246 -3.44947 0.825719 0.0961338 -3.98804 0.823794 0.557603 -5.26049 1.70655 
0.104367 -4.50063 0.803872 0.274658 -5.06198 1.13975 0.825186 -5.68027 1.33949 
-0.0796244 -0.97661 0.0639291 0.841401 -5.09124 1.93938 -0.0407903 -1.4332 0.181976 
0.105959 -3.08241 0.746768 0.0404081 -2.26677 0.458547 0.0921652 -3.70671 0.821073 
0.667698 -5.05651 1.82826 0.0447136 -4.21755 0.703819 0.133471 -4.79187 0.84388 
0.379015 -5.14665 1.33416 0.822164 -5.41358 1.47746 0.809604 -5.15472 1.61817 
-0.0926633 -0.751411 0.00811612 0.728905 -4.88606 1.76007 0.0805697 -2.68261 0.641828 
0.0930361 -3.38479 0.807838 0.0237138 -3.93785 0.686602 0.00216864 -1.82673 0.325256 
0.0261308 -4.5001 0.632933 0.500711 -4.98928 1.51241 0.209225 -4.97987 0.977638 
0.673899 -5.43662 0.891597 -0.048296 -1.27765 0.1499 0.725874 -4.88825 1.49134 
0.0888197 -3.01982 0.762123 0.0292861 -3.64125 0.714578 0.0486243 -2.25563 0.514154 
-0.0385567 -4.20414 0.524217 0.597127 -4.74357 1.55339 0.0597159 -4.75521 0.669178 
0.324072 -4.92545 1.16301 0.689993 -5.11595 1.12579 -0.0725817 -0.939116 0.0580284 
0.00771165 -1.77856 0.353024 0.0456055 -3.31223 0.74448 0.632012 -4.62902 1.3876 
0.074479 -2.61243 0.674742 -0.0600001 -3.90474 0.511503 -0.0557987 -4.48705 0.443215 
0.147004 -4.82893 0.805886 0.446318 -4.66074 1.29274 0.542753 -5.17358 0.519445 
-0.0275318 -1.38698 0.218011 0.613946 -4.72852 1.07356 0.0591281 -2.94548 0.742609 
0.0468469 -2.1491 0.536956 -0.0474652 -3.59074 0.563415 -0.126981 -4.1938 0.322774 
-0.0124054 -4.66874 0.485114 0.522565 -4.42856 1.2344 0.273032 -4.63263 0.977606 
0.557366 -4.89251 0.715277 0.0610854 -2.54169 0.688783 -0.0170658 -3.25145 0.634228 
-0.0428481 -1.14174 0.155494 0.52902 -4.41664 0.961951 -0.151016 -3.88515 0.308372 
-0.138222 -4.44335 0.242185 0.09178 -4.60144 0.631161 0.0112947 -1.67926 0.380612 
0.387703 -4.31606 1.04233 0.412821 -4.84529 0.170553 0.468498 -4.56214 0.535039 
0.0473145 -2.12435 0.584222 0.0149163 -2.88777 0.682105 -0.13512 -3.5592 0.374105 
-0.217417 -4.16953 0.107631 -0.0797648 -4.51822 0.298629 0.438994 -4.14938 0.895255 
0.226898 -4.28356 0.779102 0.0347453 -2.51485 0.678796 -0.0139463 -1.30755 0.272961 
-0.0949353 -3.21417 0.475378 0.415673 -4.18361 0.56549 -0.245681 -3.86305 0.0870296 
-0.217909 -4.35351 0.0373284 0.0421334 -4.3061 0.452853 0.0262909 -1.74615 0.475672 
0.326217 -3.97205 0.764146 0.310761 -4.5191 -0.0841742 0.0383757 -2.14669 0.624246 
0.346827 -4.28282 0.172712 -0.0494797 -2.85985 0.564636 -0.228327 -3.52867 0.160221 
-0.140473 -4.29892 0.114659 0.176231 -3.92222 0.562323 -0.306541 -4.11636 -0.113553 
0.344157 -3.87737 0.51794 -0.0130652 -2.50745 0.611347 0.0118427 -1.46694 0.409678 
-0.180884 -3.17055 0.283054 0.251947 -3.65449 0.481303 -0.00579426 -3.96329 0.268029 
-0.290333 -4.20683 -0.162302 -0.339609 -3.82348 -0.141927 0.0281696 -1.82589 0.556046 
0.28373 -3.93151 0.0934249 0.214222 -4.12388 -0.300747 0.00889043 -2.16623 0.608984 
-0.121921 -2.79609 0.408145 0.251246 -3.59365 0.217984 0.116789 -3.56232 0.332184 
-0.18984 -4.00755 -0.0577816 -0.320722 -3.48534 -0.0628516 -0.389291 -4.02246 -0.330375 
-0.0669428 -2.4114 0.49889 0.0177364 -1.61866 0.514797 0.14506 -3.75758 -0.432277 
0.1945 -3.60198 -0.134592 0.171887 -3.33046 0.215979 -0.264644 -3.10868 0.081671 
-0.04442 -3.56902 0.089382 -0.350154 -3.99288 -0.345016 -0.427607 -3.75854 -0.367854 
-0.00733224 -1.98362 0.56058 0.163818 -3.26182 -0.0213563 -0.186729 -2.69514 0.25041 
-0.223157 -3.6506 -0.20674 0.0657854 -3.16901 0.105103 -0.40935 -3.43542 -0.289772 
-0.460251 -3.87138 -0.529878 -0.0943016 -2.23114 0.418549 0.0870266 -3.35836 -0.515801 
0.120195 -3.23507 -0.293519 -0.0158196 -1.76754 0.512279 -0.349387 -3.06579 -0.135703 
-0.394012 -3.71719 -0.499006 -0.0700273 -3.1476 -0.0690899 0.0994152 -2.96471 -0.0603364 
-0.504667 -3.64589 -0.579603 -0.260244 -2.663 0.0633425 -0.246314 -3.27067 -0.332033 
0.0257379 -2.78028 -0.0975941 -0.513062 -3.65628 -0.698057 0.0766729 -2.88964 -0.310307 
-0.487161 -3.34251 -0.503818 -0.180675 -2.29856 0.219294 -0.086003 -1.92033 0.390276 
0.0416124 -2.93951 -0.548068 -0.0970575 -2.76773 -0.20612 -0.415938 -3.3837 -0.611423 
-0.420685 -2.97195 -0.335231 -0.563808 -3.4698 -0.762077 0.0396454 -2.60331 -0.296785 
-0.324614 -2.56242 -0.121286 -0.24784 -2.85023 -0.41579 -0.0161633 -2.45466 -0.23569 
0.0115075 -2.56975 -0.537579 -0.540685 -3.3733 -0.819253 -0.207675 -2.13286 0.120833 
-0.545639 -3.19066 -0.684489 -0.406671 -2.98909 -0.664425 -0.106833 -2.35954 -0.307668 
-0.00239643 -2.28321 -0.365118 -0.461366 -2.79444 -0.473308 -0.597227 -3.22157 -0.89867 
-0.00931884 -2.25413 -0.503709 -0.34926 -2.36628 -0.225455 -0.224297 -2.39396 -0.450364 
-0.0438466 -2.07243 -0.346679 -0.528563 -3.00923 -0.867549 -0.564823 -2.95914 -0.769578 
-0.364596 -2.53737 -0.653492 -0.0301889 -1.93743 -0.451139 -0.100534 -1.94132 -0.36818 
-0.485291 -2.58134 -0.584114 -0.60561 -2.94954 -0.941945 -0.569992 -2.82421 -0.952509 
-0.183562 -1.94399 -0.443357 -0.452054 -2.47228 -0.804374 -0.0546437 -1.70058 -0.405 
-0.578347 -2.69931 -0.867426 -0.29183 -2.04864 -0.58226 -0.0959012 -1.56089 -0.389311 
-0.583662 -2.60879 -0.979653 -0.173426 -1.57902 -0.444613 -0.479643 -2.27398 -0.862302 
-0.316541 -1.84903 -0.627275 
