# vtk DataFile Version 3.0
vtk output
ASCII
DATASET POLYDATA
POINTS 724 float
10.5518 -11.1666 11.7228 10.8334 -11.928 11.646 10.2637 -10.2131 11.9366 
11.0966 -12.5487 11.6615 10.0495 -9.25147 12.2835 10.4631 -10.6176 12.1468 
11.3531 -13.0878 11.7497 9.92421 -8.30224 12.776 10.7204 -11.3329 12.0894 
10.2632 -9.79704 12.455 10.9622 -11.9156 12.0938 11.1902 -12.4405 12.0967 
11.5777 -13.5267 11.8902 10.1089 -8.94077 12.8331 9.90011 -7.42718 13.3941 
10.538 -10.5575 12.5268 11.3891 -12.7923 12.2409 10.8131 -11.2941 12.5111 
10.032 -8.09011 13.3337 10.33 -9.64521 12.8967 11.7868 -13.9111 12.0764 
9.97175 -6.62788 14.1362 11.0948 -11.9557 12.5264 11.6002 -13.1812 12.3701 
10.0288 -7.25515 13.9329 10.1926 -8.70285 13.3627 10.5797 -10.3944 12.93 
11.3472 -12.4366 12.6663 11.981 -14.2483 12.3031 10.8424 -11.1229 12.9194 
10.0919 -6.03692 14.8218 10.14 -7.75274 13.9486 10.3855 -9.40988 13.3666 
11.8028 -13.5312 12.5423 10.138 -6.76973 14.572 11.0951 -11.7076 12.9761 
11.5881 -12.8696 12.8161 10.6069 -10.1549 13.3605 10.2754 -8.39186 13.9059 
10.2562 -5.49162 15.5712 12.1665 -14.5502 12.5746 12.0036 -13.8864 12.734 
11.3418 -12.1936 13.103 10.2423 -6.12295 15.2332 10.8434 -10.8524 13.3623 
10.2454 -7.37924 14.5288 10.4408 -9.10187 13.8623 11.8304 -13.299 12.978 
11.0874 -11.4478 13.4252 10.3076 -6.60294 15.1737 10.3666 -8.04161 14.4561 
10.6342 -9.84109 13.8294 11.5931 -12.6578 13.2361 12.3175 -14.7769 12.8401 
10.3934 -5.54456 15.9532 10.4507 -4.97309 16.3682 12.1139 -13.9216 13.0537 
10.852 -10.5505 13.8256 11.3394 -11.9763 13.5318 10.3909 -7.138 15.1095 
10.5104 -8.75389 14.3837 11.8654 -13.1744 13.3359 10.4348 -5.91642 15.8988 
12.3053 -14.2952 13.2465 11.0892 -11.1866 13.8751 10.6811 -9.49897 14.3274 
10.4888 -7.74624 15.0199 11.6071 -12.4977 13.6328 10.4839 -6.34773 15.8185 
10.5713 -5.13973 16.6489 10.6362 -4.51107 17.0942 12.4767 -14.99 13.1662 
12.0795 -13.5639 13.4695 10.8805 -10.2316 14.3074 11.345 -11.7726 13.9536 
10.6084 -8.42451 14.9277 10.5466 -6.85174 15.7179 10.6095 -5.54751 16.5735 
11.8514 -12.9342 13.7629 12.277 -13.9231 13.6351 10.8062 -4.06475 17.7533 
10.7412 -4.78427 17.287 12.4738 -14.5014 13.5918 11.1072 -10.9169 14.332 
10.7549 -9.15525 14.8519 10.6256 -7.43106 15.6048 10.6496 -6.02276 16.4495 
11.6006 -12.2806 14.0611 12.6279 -15.16 13.5231 12.0882 -13.3461 13.9088 
10.7739 -5.27311 17.1617 10.9327 -9.90033 14.8101 10.7032 -6.54404 16.3181 
10.7251 -8.08595 15.4928 11.3518 -11.526 14.3997 11.8599 -12.7508 14.1864 
10.9033 -4.20164 17.9806 12.3601 -13.8954 13.9918 10.9951 -3.50324 18.4885 
10.8128 -5.77236 17.0205 12.5906 -14.5266 13.9725 10.7716 -7.12068 16.187 
10.8506 -8.80039 15.4002 11.1412 -10.6102 14.8156 10.9157 -4.63101 17.8427 
11.6126 -12.0802 14.4917 12.7609 -15.2755 13.8758 12.1483 -13.2802 14.2804 
10.8635 -6.29405 16.8823 10.9403 -5.09434 17.7003 10.8579 -7.75487 16.0679 
11.0075 -9.54358 15.3417 11.3782 -11.2696 14.859 11.8991 -12.6331 14.5776 
12.4344 -13.8512 14.3464 11.0711 -3.82437 18.5927 11.1619 -2.92302 19.1453 
10.9774 -5.5776 17.5576 12.6817 -14.4773 14.3551 10.9271 -6.84694 16.7583 
10.9672 -8.44505 15.9688 11.1984 -10.2844 15.322 11.077 -4.37206 18.3952 
12.8785 -15.3464 14.2169 11.6435 -11.8911 14.917 12.191 -13.1717 14.6561 
11.2408 -3.10382 19.3115 11.0286 -6.06773 17.4384 11.0994 -4.88542 18.2238 
11.0051 -7.44795 16.6469 11.106 -9.18148 15.8961 11.4241 -10.9984 15.3326 
12.4672 -13.7007 14.724 11.9227 -12.4545 14.987 11.2294 -3.64116 19.0961 
12.8409 -14.7474 14.6125 11.3505 -2.16495 19.9015 11.1424 -5.35268 18.1048 
11.0894 -6.59009 17.3294 11.1027 -8.10662 16.5495 11.2786 -9.94198 15.8511 
12.1972 -12.9615 15.0645 11.2312 -4.20021 18.8814 11.6758 -11.6436 15.3727 
12.6836 -14.1133 14.8545 13.0075 -15.3871 14.6258 11.4071 -2.57431 19.9405 
11.1946 -5.82892 17.9994 11.1624 -7.15897 17.2294 11.2648 -4.65827 18.7636 
11.2261 -8.82288 16.4683 12.4418 -13.3888 15.1709 11.4848 -10.6746 15.8418 
11.9403 -12.2069 15.4382 11.3711 -3.38739 19.5722 12.9222 -14.6346 15.0277 
11.5305 -1.38139 20.6353 11.2546 -6.33419 17.902 11.3095 -5.11186 18.6595 
11.252 -7.78442 17.1376 12.6815 -13.8318 15.2783 11.3798 -9.57059 16.4124 
11.7189 -11.335 15.8708 12.2001 -12.6866 15.5334 11.3947 -3.89604 19.4374 
13.1221 -15.3881 15.025 11.5167 -2.55215 20.2504 11.6145 -1.61151 20.8106 
11.3614 -5.58235 18.562 11.3249 -6.88086 17.8115 11.3636 -8.46579 17.0585 
11.4312 -4.36487 19.3264 11.5662 -10.3031 16.3921 12.4585 -13.1414 15.6381 
11.9701 -11.9047 15.9384 12.8745 -14.1715 15.4524 11.5378 -3.05778 20.1354 
13.0716 -14.7489 15.4363 11.7414 -0.494758 21.5018 11.4207 -6.08039 18.4722 
11.4101 -7.47655 17.7291 11.4759 -4.8339 19.2221 11.5021 -9.18381 17.0021 
11.7831 -10.9754 16.4149 12.232 -12.4163 16.0286 12.6917 -13.529 15.7878 
11.5642 -3.54595 20.0161 13.2411 -15.3512 15.4837 11.6857 -1.98355 20.896 
11.4903 -6.61448 18.3904 11.5273 -5.31733 19.1254 11.5145 -8.12169 17.6592 
11.6715 -9.90398 16.979 11.8161 -0.889723 21.6035 11.5994 -4.03233 19.8988 
12.947 -14.0483 15.8814 12.0259 -11.5805 16.4719 12.4876 -12.8626 16.1535 
11.7082 -2.54076 20.7678 13.1629 -14.6285 15.9084 11.9608 0.295661 22.3942 
11.5868 -5.82463 19.038 11.5738 -7.18875 18.319 11.6424 -4.52731 19.7869 
11.6426 -8.80607 17.6096 11.8737 -10.5944 16.9914 12.2821 -12.1108 16.5643 
11.7329 -3.09102 20.6219 12.7575 -13.3601 16.257 11.8645 -1.39787 21.5789 
13.347 -15.2793 15.9448 11.6571 -6.35901 18.9638 11.693 -5.03982 19.6838 
11.6745 -7.80499 18.2611 13.0184 -13.9012 16.3377 11.7994 -9.51128 17.5856 
11.7663 -3.63549 20.4809 12.0229 -0.224417 22.4149 12.1051 -11.2253 17.0406 
12.5542 -12.6391 16.6557 11.8821 -2.00743 21.412 13.2486 -14.5036 16.3781 
12.1881 0.973574 23.2978 11.7533 -5.56775 19.5981 11.7407 -6.92437 18.9029 
11.8074 -4.19151 20.3463 11.7964 -8.46115 18.2199 11.9029 -2.61798 21.2288 
11.9883 -10.2064 17.5917 12.8286 -13.1762 16.7407 12.3617 -11.8241 17.1033 
12.0519 -0.829445 22.2911 13.4418 -15.1745 16.4155 11.8587 -4.74654 20.2369 
11.8248 -6.11468 19.53 11.9319 -3.24564 21.0442 11.84 -7.52397 18.8559 
13.0926 -13.7433 16.8103 11.9444 -9.14574 18.1985 12.0602 -1.49709 22.0624 
12.2098 -10.8815 17.617 12.2357 0.359954 23.2332 12.6324 -12.4006 17.1722 
13.3283 -14.3588 16.8578 11.9741 -3.84974 20.8985 11.9206 -5.30676 20.1523 
12.0705 -2.21885 21.796 11.9092 -6.68393 19.4778 12.4127 1.56954 24.1635 
11.9587 -8.15792 18.823 12.1225 -9.84681 18.1923 12.9049 -12.9729 17.2407 
12.2426 -0.33638 22.9957 12.4578 -11.5245 17.656 13.5267 -15.0376 16.8984 
12.2252 -1.18139 22.6056 12.1017 -2.87315 21.6023 12.0268 -4.4445 20.7867 
11.9938 -5.87798 20.0891 13.1667 -13.5607 17.3028 12.0086 -7.27745 19.4398 
12.1008 -8.8254 18.8012 12.3321 -10.5409 18.2 12.7207 -12.14 17.7051 
12.4435 0.837175 23.9964 13.4023 -14.1848 17.3549 12.3893 -0.204655 23.437 
12.2453 -1.86367 22.3627 12.1453 -3.50248 21.4536 12.09 -5.04139 20.7036 
12.0794 -6.46227 20.0443 12.1257 -7.89783 19.412 12.9857 -12.7414 17.7605 
12.6208 2.12645 24.9285 12.2699 -9.5153 18.7882 12.5678 -11.2108 18.2208 
13.6025 -14.8694 17.3939 12.5538 0.665543 24.2251 12.4048 -0.881736 23.1769 
12.2796 -2.50398 22.1738 12.1986 -4.12989 21.3398 13.2408 -13.3472 17.8172 
12.1645 -5.64447 20.6448 12.1791 -7.05925 20.0128 12.264 -8.54457 19.3914 
12.8186 -11.8541 18.255 12.4678 -10.2078 18.7854 12.6894 1.6416 24.9428 
13.4725 -13.9783 17.8724 12.4315 -1.50688 22.957 12.5777 0.0490421 24.0195 
12.3224 -3.14285 22.0202 12.2621 -4.76419 21.2568 12.2509 -6.25145 20.6055 
12.2955 -7.66969 19.9898 13.0721 -12.4794 18.3006 12.4263 -9.21184 19.3762 
12.69 -10.8871 18.7948 12.8317 2.75135 25.645 13.6705 -14.672 17.8996 
12.747 1.0658 24.8632 12.4648 -2.12889 22.7635 12.5995 -0.551216 23.791 
12.3742 -3.79575 21.9006 13.317 -13.1012 18.3541 12.337 -5.40355 21.2012 
12.3509 -6.85731 20.5796 12.4313 -8.29479 19.971 12.926 -11.5471 18.8187 
12.6138 -9.88797 19.3687 12.8921 2.14244 25.5888 13.5409 -13.737 18.4138 
12.7728 0.43333 24.6494 12.6251 -1.14577 23.568 12.5049 -2.76921 22.5987 
12.4367 -4.46551 21.8151 12.4237 -6.03829 21.1663 12.467 -7.46154 20.5604 
13.1653 -12.1904 18.858 12.5884 -8.93439 19.9564 12.8221 -10.5618 19.372 
13.7313 -14.4488 18.4098 13.0141 3.3622 26.1954 12.9364 1.49491 25.4498 
12.7946 -0.176261 24.4099 12.6552 -1.75257 23.3617 13.3973 -12.8251 18.9116 
12.5537 -3.43851 22.4697 12.511 -5.14238 21.7607 12.5238 -6.65827 21.1449 
12.6013 -8.06669 20.5443 13.0421 -11.2267 19.3906 12.7665 -9.58462 19.9472 
13.0759 2.67958 26.1247 13.61 -13.4612 18.9805 12.9625 0.83752 25.2324 
12.8182 -0.772123 24.1734 12.6913 -2.38669 23.1836 12.6139 -4.13679 22.3789 
12.5975 -5.8086 21.7297 12.6398 -7.26066 21.1289 13.2654 -11.8804 19.4269 
12.754 -8.67769 20.5298 12.9607 -10.2402 19.9479 13.7853 -14.2062 18.9123 
13.1759 3.95322 26.6161 13.1181 1.9762 25.9744 12.9845 0.209162 24.9902 
12.8456 -1.37336 23.9537 12.7365 -3.06017 23.0429 13.4823 -12.5245 19.4841 
12.6866 -4.84809 22.3245 12.6978 -6.44729 21.712 12.7726 -7.84958 21.1138 
13.1636 -10.8964 19.9641 12.9227 -9.29634 20.5201 13.8328 -13.9543 19.3905 
13.1029 -9.92379 20.5204 12.9207 -8.4331 21.0995 12.8135 -7.05313 21.6986 
12.7725 -5.5469 22.2969 13.1456 1.28134 25.7625 13.0072 -0.395858 24.7486 
12.7929 -3.77397 22.9454 12.8786 -1.99868 23.7631 13.245 3.23854 26.5646 
13.3682 -11.5465 20.0007 13.6826 -13.1571 19.5718 13.0801 -9.01829 21.0895 
13.2882 -10.5578 20.5368 12.9443 -7.63043 21.6841 12.8725 -6.20903 22.283 
12.8628 -4.51053 22.8899 13.5662 -12.1827 20.0656 12.9197 -2.66509 23.612 
13.0332 -0.994959 24.5232 13.1685 0.622887 25.5255 13.2912 2.50124 26.4314 
13.322 4.51252 26.9371 13.8782 -13.6769 19.8763 13.2466 -9.61187 21.09 
13.0872 -8.19025 21.6692 13.4727 -11.1884 20.5778 12.9874 -6.82403 22.272 
12.9475 -5.23973 22.8654 12.9715 -3.3778 23.5081 13.0636 -1.6097 24.3259 
13.1915 -0.00115469 25.2872 13.3227 1.77153 26.2383 13.7485 -12.7829 20.18 
13.4025 3.8031 26.9222 13.2374 -8.74427 21.6587 13.4145 -10.2133 21.109 
13.1157 -7.39572 22.2583 13.0472 -5.92795 22.8567 13.0373 -4.1271 23.4503 
[...]
POINT_DATA 724
VECTORS velocity double
1.28232 -1.89173 1.58051 1.43546 -1.28642 1.66497 1.0687 -2.59075 1.45568 
1.53452 -0.777655 1.7037 0.862209 -3.23545 1.34955 1.13755 -2.40778 1.4361 
1.59306 -0.341115 1.70191 0.700233 -3.8552 1.30243 1.2901 -1.88106 1.5034 
0.9474 -3.00703 1.32566 1.40122 -1.41678 1.54564 1.48701 -0.969492 1.57778 
1.61701 -0.00341051 1.66744 0.775894 -3.57314 1.25962 0.614345 -4.46843 1.34099 
1.08839 -2.56819 1.33157 1.51954 -0.693528 1.54836 1.23823 -2.03604 1.37476 
0.652495 -4.13269 1.25833 0.878304 -3.22774 1.22227 1.61704 0.270882 1.60711 
0.608783 -5.117 1.47056 1.36068 -1.49921 1.40986 1.54524 -0.377916 1.51604 
0.5988 -4.7195 1.34526 0.704822 -3.84169 1.18353 1.00858 -2.79308 1.20915 
1.41941 -1.1097 1.3862 1.59783 0.488415 1.52542 1.15063 -2.28244 1.23077 
0.657534 -5.67346 1.63563 0.604412 -4.4619 1.24718 0.790976 -3.47974 1.119 
1.54902 -0.108778 1.4597 0.60235 -5.15652 1.43983 1.25266 -1.82946 1.23584 
1.45373 -0.749036 1.34809 0.907699 -3.05434 1.08152 0.634729 -4.12146 1.13575 
0.741915 -6.2363 1.83698 1.5618 0.659336 1.42316 1.53804 0.150907 1.38915 
1.31533 -1.43472 1.21048 0.657633 -5.72153 1.63075 1.03189 -2.59494 1.07173 
0.579575 -4.78543 1.28525 0.697602 -3.74596 1.03552 1.46938 -0.392128 1.2971 
1.13123 -2.15556 1.05831 0.610494 -5.38234 1.48429 0.580319 -4.39786 1.12955 
0.79254 -3.33673 0.962629 1.35947 -1.03633 1.1778 1.51938 0.769069 1.32205 
0.746011 -6.27432 1.84352 0.846607 -6.76637 2.0492 1.49009 0.126201 1.27116 
0.902981 -2.89962 0.919395 1.20445 -1.72817 1.03373 0.57071 -5.01666 1.32135 
0.613098 -4.00398 0.986495 1.39794 -0.574784 1.15471 0.691883 -5.98339 1.71755 
1.46388 0.384093 1.19414 1.00362 -2.45453 0.888329 0.681128 -3.59778 0.870307 
0.546343 -4.625 1.14564 1.265 -1.26921 1.01305 0.634503 -5.64454 1.56748 
0.825424 -6.66837 2.00567 0.94413 -7.16976 2.22408 1.46184 0.853168 1.19879 
1.40203 -0.247058 1.10956 0.774106 -3.17228 0.788387 1.08959 -1.98957 0.86357 
0.54827 -4.2238 0.970607 0.578129 -5.2606 1.39227 0.754918 -6.33352 1.86012 
1.29325 -0.879394 0.976628 1.38706 0.0324003 1.04863 1.03034 -7.45506 2.36084 
0.895675 -6.96167 2.13344 1.40237 0.480821 1.06243 0.873351 -2.72088 0.734502 
0.584454 -3.81899 0.813562 0.531155 -4.84819 1.19785 0.677312 -5.93465 1.68374 
1.14831 -1.54975 0.835079 1.39511 0.900949 1.06717 1.30174 -0.517233 0.931352 
0.804079 -6.56343 1.95854 0.65312 -3.40269 0.690069 0.601884 -5.50529 1.48784 
0.504149 -4.4259 0.994776 0.959331 -2.2605 0.696178 1.18515 -1.12276 0.802244 
1.00228 -7.33448 2.30774 1.31566 -0.0444311 0.911126 1.12286 -7.6554 2.48791 
0.713897 -6.13673 1.77018 1.32976 0.444577 0.922278 0.534017 -5.05726 1.27459 
0.50743 -4.00958 0.800799 0.738838 -2.96543 0.603733 0.920628 -7.03517 2.16848 
1.02783 -1.79025 0.666503 1.32699 0.915881 0.941829 1.21852 -0.63181 0.784707 
0.626938 -5.6887 1.56765 0.831372 -6.67077 2.00549 0.481715 -4.6091 1.05153 
0.544987 -3.59701 0.635157 0.826368 -2.4961 0.547817 1.08594 -1.2814 0.649838 
1.23966 -0.128828 0.776945 1.05924 -7.45346 2.38223 1.20405 -7.69722 2.58558 
0.739713 -6.26154 1.82466 1.25203 0.359985 0.78482 0.546407 -5.2309 1.3524 
0.453971 -4.17376 0.830419 0.611536 -3.16547 0.509968 0.957476 -7.13406 2.21822 
1.25976 0.908235 0.825936 0.908466 -1.98652 0.517073 1.12662 -0.7747 0.64109 
1.1643 -7.57789 2.51802 0.650768 -5.83285 1.63327 0.858498 -6.76376 2.04627 
0.476137 -4.76949 1.12465 0.458704 -3.75024 0.627727 0.695434 -2.69145 0.428452 
1.14961 -0.298494 0.636673 0.972266 -1.47602 0.501558 1.07278 -7.40938 2.38351 
1.19747 0.513693 0.699487 1.30077 -7.55843 2.69962 0.767001 -6.38006 1.87504 
0.563867 -5.3818 1.4263 0.423306 -4.31462 0.890494 0.498933 -3.31921 0.462056 
1.01401 -0.998625 0.492577 0.971131 -7.13259 2.22445 0.77647 -2.19206 0.383391 
1.13799 0.033075 0.60605 1.17814 0.878151 0.695033 1.22834 -7.48699 2.58989 
0.675822 -5.96663 1.69215 0.48197 -4.91511 1.2034 0.881748 -6.82559 2.0735 
0.397339 -3.87266 0.663427 1.02796 -0.605131 0.475983 0.564634 -2.86468 0.346951 
0.839943 -1.70059 0.359777 1.09562 -7.36703 2.39925 1.10893 0.397083 0.565458 
1.40663 -7.28183 2.8474 0.584391 -5.52267 1.49374 0.79174 -6.47667 1.91287 
0.411018 -4.44447 0.968585 1.03134 -0.22348 0.461951 0.405356 -3.44143 0.46561 
0.635839 -2.38973 0.278053 0.877908 -1.25503 0.342382 1.00129 -7.15153 2.25245 
1.09779 0.833158 0.576693 1.21564 -7.36938 2.56024 1.36398 -7.24261 2.78116 
0.69923 -6.08432 1.73827 0.49485 -5.05449 1.27928 0.35985 -3.98452 0.733335 
0.910385 -6.88447 2.1041 0.443796 -3.00562 0.315869 0.900495 -0.831586 0.330262 
0.694356 -1.91974 0.239023 1.00617 0.0382059 0.425999 1.12449 -7.27975 2.42216 
1.0208 0.437768 0.451334 1.55745 -6.97318 3.11975 0.604741 -5.65244 1.54838 
0.411869 -4.57423 1.05201 0.81762 -6.56449 1.94575 0.337032 -3.54333 0.51706 
0.497148 -2.55531 0.217139 0.737638 -1.46055 0.217184 0.897242 -0.485315 0.308919 
1.03354 -7.12855 2.28162 1.00497 0.769054 0.453463 1.29163 -7.20686 2.6672 
0.510249 -5.18826 1.34352 0.721907 -6.19282 1.77449 0.342564 -4.09826 0.820643 
0.34462 -3.11198 0.339435 1.48808 -7.02054 3.00303 0.940308 -6.9126 2.13321 
0.90541 -0.0661878 0.310635 0.550961 -2.09071 0.158253 0.758622 -1.04688 0.200436 
1.18752 -7.17616 2.50441 0.917284 0.335006 0.329907 1.73606 -6.877 3.52072 
0.623603 -5.77327 1.58917 0.419722 -4.70502 1.12726 0.84352 -6.63084 1.97365 
0.294869 -3.639 0.599649 0.375822 -2.67109 0.209944 0.592335 -1.63743 0.125219 
1.0837 -7.08325 2.34264 0.779872 -0.605604 0.198147 1.38672 -7.04757 2.83078 
0.911525 0.696073 0.344387 0.525022 -5.3165 1.3918 0.742685 -6.28387 1.80076 
0.338628 -4.21793 0.906192 0.797649 -0.170329 0.207481 0.274225 -3.19386 0.405319 
0.979412 -6.91799 2.17814 1.63483 -6.95832 3.31949 0.416921 -2.21789 0.12677 
0.629701 -1.17029 0.111152 1.26383 -7.05165 2.6255 0.813898 0.244506 0.22833 
1.9093 -7.01893 3.98595 0.639879 -5.88201 1.61656 0.429382 -4.83499 1.1858 
0.871682 -6.67346 2.00429 0.273432 -3.73897 0.690051 1.14237 -7.00361 2.4285 
0.280026 -2.75101 0.252032 0.661233 -0.707618 0.111788 0.462092 -1.74378 0.0783252 
1.50111 -6.98133 3.06325 0.816207 0.616306 0.249139 0.763037 -6.35674 1.82326 
0.537203 -5.4369 1.42341 1.0191 -6.88286 2.23096 0.34087 -4.34206 0.976316 
0.687658 -0.260403 0.124097 0.230462 -3.27297 0.491986 1.35223 -6.97113 2.79189 
0.306901 -2.29126 0.142206 1.77887 -7.08536 3.68392 0.505277 -1.26365 0.0561922 
0.708974 0.157893 0.145154 0.900022 -6.68189 2.03879 0.654152 -5.97798 1.6352 
1.19727 -6.92774 2.52458 0.437532 -4.96152 1.22499 2.02808 -7.2413 4.38998 
0.264707 -3.84927 0.770611 0.213478 -2.81086 0.323279 0.543627 -0.7925 0.0528105 
1.61358 -7.05077 3.32743 0.345891 -1.81546 0.0730527 0.71872 0.531817 0.168729 
1.41144 -6.96738 2.92586 1.06015 -6.82985 2.29729 0.782849 -6.40472 1.846 
0.54663 -5.54913 1.44207 0.576064 -0.343668 0.0625172 0.344481 -4.46912 1.0262 
0.206378 -3.36133 0.576823 0.221409 -2.34382 0.193299 0.388513 -1.33521 0.0361672 
1.87726 -7.30098 3.9902 0.602016 0.0716637 0.0809223 1.63717 -7.1451 3.41651 
1.25181 -6.89108 2.63722 0.930693 -6.66688 2.08523 0.666965 -6.05785 1.65026 
0.4432 -5.0844 1.2478 0.262032 -3.96926 0.832156 0.429039 -0.866386 0.0225247 
2.06984 -7.35758 4.64685 0.170943 -2.87919 0.405103 0.247607 -1.86952 0.103614 
0.619509 0.444624 0.104467 1.82 -7.38565 3.89131 1.46777 -7.03487 3.07217 
1.10664 -6.79056 2.3873 0.804354 -6.43191 1.87722 0.464672 -0.422538 0.0246784 
0.553957 -5.65245 1.4534 0.34727 -4.59807 1.0574 0.194604 -3.4687 0.64879 
0.283253 -1.39516 0.0488159 0.159965 -2.4008 0.264691 1.97166 -7.48938 4.37377 
0.49397 -0.0141588 0.0370465 1.31154 -6.92004 2.77716 1.67233 -7.30546 3.5519 
0.967127 -6.64799 2.15323 0.680485 -6.12343 1.66994 0.44694 -5.20443 1.26014 
0.261951 -4.10017 0.875009 0.321079 -0.933685 0.0206789 0.146407 -2.97168 0.482848 
0.169913 -1.92458 0.159532 2.04541 -7.27243 4.76795 0.52 0.357028 0.0574508 
1.84705 -7.54588 4.04947 1.1601 -6.79464 2.50576 1.52189 -7.17478 3.2324 
0.830524 -6.44726 1.92594 0.356504 -0.498314 0.0113016 0.561276 -5.74862 1.46564 
0.349298 -4.73048 1.07573 0.190126 -3.59685 0.704055 0.193902 -1.4546 0.0877459 
0.119755 -2.4806 0.340951 1.95259 -7.47819 4.46815 0.386749 -0.0998252 0.0143153 
1.70922 -7.48944 3.70935 1.36969 -7.02197 2.93111 1.01079 -6.64758 2.24779 
0.697338 -6.17721 1.70292 0.450574 -5.32351 1.27002 0.263206 -4.24113 0.903043 
0.224535 -1.00021 0.0437375 0.134365 -3.09259 0.547929 0.113596 -1.99761 0.227343 
0.422826 0.270664 0.0278494 1.98199 -7.01407 4.762 1.84082 -7.601 4.14129 
1.56626 -7.35514 3.38688 1.21534 -6.85842 2.64288 0.255925 -0.573515 0.0206553 
0.863233 -6.46231 1.99816 0.571015 -5.83754 1.48739 0.351628 -4.86629 1.08816 
0.190026 -3.74262 0.743419 0.123573 -1.52667 0.142696 0.0965807 -2.59227 0.410414 
1.90826 -7.29573 4.49207 0.283633 -0.186351 0.0121281 1.71748 -7.60886 3.81268 
1.41845 -7.1774 3.07933 1.05901 -6.68467 2.36432 0.719687 -6.2217 1.75612 
0.456073 -5.44004 1.28553 0.265772 -4.38942 0.921838 0.143703 -1.07515 0.0843271 
0.130701 -3.23885 0.597557 0.0768489 -2.10158 0.294782 0.331885 0.186611 0.0142733 
1.90216 -6.68558 4.6715 1.81462 -7.51522 4.18792 1.58609 -7.51092 3.49749 
1.26519 -6.97806 2.78149 0.901972 -6.49107 2.09349 0.167724 -0.653512 0.0475747 
0.585224 -5.91626 1.52611 0.355691 -5.00257 1.10213 0.192984 -3.90032 0.770608 
0.0729748 -1.62643 0.202659 0.0861222 -2.73635 0.467081 0.251358 0.105242 0.0133494 
0.0564242 -2.24178 0.353654 0.13275 -3.40402 0.63338 0.270263 -4.54021 0.937933 
0.465213 -5.54868 1.31432 1.70602 -7.62049 3.87439 1.44736 -7.34013 3.19451 
0.748325 -6.262 1.83223 1.10645 -6.76793 2.49008 1.85003 -6.99328 4.46087 
0.0808215 -1.17537 0.133701 0.189227 -0.275205 0.0272619 0.0847776 -2.90687 0.509921 
0.0406751 -1.76333 0.258859 0.198611 -4.06353 0.791253 0.3627 -5.13292 1.12504 
0.605155 -5.98187 1.58648 0.0946346 -0.759745 0.0856202 0.943688 -6.54724 2.20415 
1.30072 -7.12604 2.89881 1.58639 -7.59693 3.56838 1.7762 -7.2897 4.1988 
1.81507 -6.36465 4.51774 0.17713 0.017998 0.0215567 0.0486842 -2.4149 0.400374 
0.138936 -3.57925 0.659613 0.0363582 -1.31254 0.183719 0.277361 -4.68635 0.958398 
0.479018 -5.6419 1.36223 0.782289 -6.30836 1.92784 1.14546 -6.88802 2.60598 
1.45765 -7.46885 3.27307 1.6828 -7.50112 3.90777 0.106594 -0.397622 0.0553235 
1.78267 -6.63726 4.37798 0.089795 -3.09325 0.541269 0.0240209 -1.93791 0.305906 
0.206871 -4.22373 0.811893 0.373424 -5.24846 1.16359 0.630474 -6.03591 1.66759 
0.983059 -6.6367 2.31596 0.0389485 -0.902326 0.127608 1.31977 -7.26919 2.98483 
1.57422 -7.57974 3.61156 1.72921 -6.95658 4.17516 1.72381 -6.08814 4.31422 
0.106798 -0.0866405 0.0371911 0.050212 -2.61082 0.435249 0.148275 -3.75405 0.681992 
0.00945011 -1.48797 0.227565 0.287453 -4.81881 0.990398 0.497283 -5.71448 1.4309 
0.817465 -6.37203 2.03114 1.1726 -7.02604 2.70022 1.45443 -7.52836 3.32221 
1.65231 -7.24869 3.91974 0.0439617 -0.533991 0.0864584 1.7067 -6.28109 4.24121 
0.0991998 -3.28307 0.565843 0.0196755 -2.14007 0.341701 0.217659 -4.37123 0.839723 
0.387601 -5.3408 1.22185 0.658648 -6.08733 1.76107 0.00245867 -1.07111 0.164279 
1.01402 -6.75223 2.41247 1.55501 -7.43611 3.63771 1.32662 -7.37849 3.04468 
1.67369 -6.56572 4.10999 0.0460171 -0.213009 0.0565356 1.62822 -5.86084 4.06875 
0.0580739 -2.81463 0.461414 0.160064 -3.91742 0.707472 -0.00252822 -1.68896 0.260719 
0.300157 -4.92798 1.03978 0.518379 -5.76857 1.51533 0.848359 -6.45901 2.12659 
1.18623 -7.15351 2.76526 1.61407 -6.89176 3.90307 1.44663 -7.48541 3.36238 
-5.03664e-05 -0.694306 0.114191 1.61974 -5.95338 4.04389 0.11151 -3.46313 0.589953 
0.0240526 -2.3535 0.367702 0.230421 -4.49571 0.881655 0.403701 -5.40613 1.29808 
0.68546 -6.14871 1.85285 -0.0175722 -1.26587 0.192006 1.03299 -6.87616 2.48268 
1.32412 -7.41725 3.08259 1.53532 -7.12428 3.6679 1.60926 -6.19057 3.99394 
-0.00132373 -0.365836 0.0746998 0.0699364 -3.01115 0.484372 0.173462 -4.05783 0.743352 
1.52602 -5.67091 3.78251 -0.00332072 -1.90597 0.284303 0.313972 -5.00679 1.10811 
0.539025 -5.81519 1.60314 0.869907 -6.56374 2.20015 1.18824 -7.24195 2.80289 
1.43515 -7.30362 3.39493 1.56884 -6.37859 3.86619 -0.0272598 -0.882275 0.134878 
1.53751 -5.7585 3.83269 0.034173 -2.56418 0.388895 0.125481 -3.62064 0.620912 
0.243662 -4.58788 0.941759 0.418928 -5.44976 1.38263 -0.0244353 -1.48107 0.211044 
0.706065 -6.22683 1.92791 1.03907 -6.98468 2.52245 1.31598 -7.35385 3.10706 
1.50814 -6.68345 3.67318 -0.0335624 -0.548567 0.0877379 0.0840327 -3.18672 0.511228 
1.51425 -5.92862 3.76807 0.00372123 -2.12625 0.302468 0.186994 -4.16435 0.795388 
0.326026 -5.05463 1.18906 1.43089 -5.52575 3.50236 0.555354 -5.86806 1.6788 
1.418 -6.98147 3.41356 0.879373 -6.67031 2.24392 1.18103 -7.26273 2.81782 
-0.0399653 -1.09561 0.148023 0.0476531 -2.75703 0.41184 1.44883 -5.53322 3.58966 
0.139561 -3.74321 0.665439 1.46656 -6.22834 3.62169 0.254613 -4.64301 1.01751 
-0.0214256 -1.70531 0.224707 0.429788 -5.4855 1.45978 1.30131 -7.16995 3.11655 
0.717114 -6.31747 1.97612 1.03352 -7.05356 2.53366 -0.0509407 -0.761923 0.0945249 
1.43945 -5.63451 3.58407 0.0985643 -3.32694 0.548991 0.0157092 -2.3337 0.321164 
0.198042 -4.22861 0.864157 1.38673 -6.58362 3.3896 0.332622 -5.08071 1.26796 
1.16608 -7.19291 2.81419 0.564417 -5.93581 1.73052 0.877223 -6.76051 2.25782 
1.33001 -5.39038 3.19658 -0.0408441 -1.32648 0.156521 1.4034 -5.85706 3.48943 
0.0623229 -2.91586 0.443527 0.151266 -3.81921 0.726359 1.35509 -5.34442 3.3196 
1.27638 -6.87579 3.1009 0.259303 -4.66412 1.09673 -0.0117309 -1.92204 0.238402 
0.433509 -5.52898 1.51473 1.0196 -7.06238 2.52331 0.718093 -6.41044 1.99524 
-0.0549663 -1.00237 0.0979589 1.35599 -5.37858 3.36084 0.0300252 -2.50996 0.34706 
1.33676 -6.16921 3.30619 0.111144 -3.41789 0.602148 0.202579 -4.24723 0.940617 
0.33107 -5.10333 1.32833 1.14459 -7.01602 2.79573 0.564503 -6.0159 1.75255 
0.866904 -6.81882 2.24853 1.22377 -5.25675 2.86894 -0.032805 -1.56053 0.166163 
1.32805 -5.50889 3.30809 0.07587 -3.02556 0.489758 0.156513 -3.83702 0.79678 
0.00144867 -2.1088 0.257974 1.23933 -6.48485 3.05325 1.25338 -5.171 3.0163 
0.254837 -4.66918 1.16347 0.428727 -5.58794 1.53934 1.00218 -6.98965 2.50258 
0.709912 -6.49066 1.98733 1.26346 -5.14866 3.09815 -0.0478025 -1.2624 0.105589 
1.27267 -5.73165 3.17286 0.0445426 -2.64225 0.387481 0.117202 -3.43487 0.663566 
0.197929 -4.23804 1.01198 0.319946 -5.13679 1.35819 1.12035 -6.70122 2.77164 
0.555742 -6.09922 1.74568 0.850725 -6.82318 2.22176 1.11091 -5.11477 2.51768 
-0.0187359 -1.7783 0.18522 1.24022 -5.18831 3.07553 0.0162848 -2.26186 0.292362 
0.15347 -3.81753 0.868869 0.0821494 -3.03639 0.538845 0.239393 -4.67516 1.20239 
1.19338 -5.96182 2.97731 0.415262 -5.6596 1.53257 0.694374 -6.54177 1.95722 
0.981793 -6.80246 2.47439 1.13862 -5.0008 2.66428 1.16473 -4.9467 2.80602 
-0.0316005 -1.53013 0.130316 1.19005 -5.23442 2.96809 0.116388 -3.40819 0.731447 
0.1817 -4.21629 1.06105 0.299658 -5.18698 1.35426 0.0493181 -2.62783 0.417286 
0.538431 -6.17083 1.71251 1.08856 -6.24478 2.72724 0.830974 -6.74697 2.1839 
0.989482 -4.95215 2.139 0.0088931 -2.10368 0.262778 1.12492 -4.8515 2.7304 
0.139357 -3.76893 0.924511 0.213655 -4.69613 1.20686 0.0831581 -3.00097 0.595913 
0.393548 -5.7339 1.49711 1.12851 -5.41205 2.83283 0.672181 -6.54154 1.90828 
0.958855 -6.46752 2.43998 1.04054 -4.8096 2.3835 -0.0122811 -1.75036 0.180074 
0.0494588 -2.56186 0.445006 0.154707 -4.2042 1.07902 1.08992 -4.83258 2.68369 
0.105552 -3.33048 0.784423 0.271215 -5.24919 1.31854 0.513221 -6.21394 1.65626 
0.807342 -6.55752 2.13625 1.04385 -5.66658 2.64054 0.877224 -4.78445 1.79072 
0.0226473 -2.1949 0.325283 1.01125 -4.63749 2.36723 0.115641 -3.72467 0.956766 
0.0744979 -2.87875 0.627233 0.179445 -4.73598 1.17715 0.363655 -5.79479 1.43555 
0.644753 -6.46489 1.84462 1.04159 -4.87704 2.59721 0.927067 -5.98925 2.3817 
0.921563 -4.6442 2.00799 0.0885586 -3.26283 0.826545 0.118783 -4.21659 1.06351 
0.00921714 -1.94273 0.272825 0.967827 -4.50426 2.29477 0.23548 -5.31173 1.2546 
0.480061 -6.20603 1.5786 0.779944 -6.22764 2.07864 0.0453917 -2.43777 0.478729 
0.97813 -5.08441 2.47775 0.756661 -4.57544 1.4219 0.85353 -4.44813 1.83605 
0.0664446 -2.83605 0.690259 0.0835179 -3.71548 0.963135 0.138544 -4.7905 1.11645 
0.324687 -5.82123 1.34864 0.611793 -6.28454 1.76683 0.937869 -4.47265 2.28482 
0.882056 -5.40106 2.27921 0.0638 -3.25943 0.86352 0.0243307 -2.06952 0.386742 
0.0757578 -4.26061 1.01474 0.84167 -4.26792 1.8905 0.190892 -5.351 1.16255 
0.439271 -6.12563 1.4812 0.743398 -5.76845 1.9961 0.0461103 -2.46488 0.58152 
0.890552 -4.54518 2.22505 0.652618 -4.36175 1.11096 0.0502921 -2.85423 0.759933 
0.724706 -4.24662 1.42821 0.0419699 -3.75733 0.935869 0.0890635 -4.82702 1.02393 
0.572374 -5.98431 1.67245 0.816046 -4.82844 2.10522 0.277247 -5.7962 1.23825 
0.81038 -4.13446 1.8738 0.0264762 -3.30104 0.864135 0.0303349 -2.17755 0.525531 
0.0233873 -4.28335 0.927438 0.787619 -4.14304 1.91516 0.691952 -5.23015 1.86926 
0.39376 -5.953 1.36838 0.137809 -5.34915 1.04447 0.0331323 -2.52001 0.682473 
0.673296 -4.02937 1.32453 0.543427 -4.09041 0.796518 0.0198402 -2.89602 0.789937 
-0.0103837 -3.74912 0.859282 0.692566 -3.87528 1.5055 0.729565 -4.32367 1.86156 
0.528518 -5.54922 1.56086 0.032227 -4.82604 0.90374 0.224698 -5.70457 1.10926 
-0.021686 -3.23999 0.80167 0.0161221 -2.299 0.645876 0.456171 -3.82523 0.55858 
0.563046 -3.78456 0.995294 0.676042 -3.80139 1.57908 -0.0348775 -4.26178 0.810181 
0.627801 -4.61581 1.69108 0.345834 -5.66372 1.24305 0.0809063 -5.3 0.907234 
-0.00532513 -2.70578 0.742758 0.577823 -3.60139 1.16323 -0.0651338 -3.67451 0.75248 
0.480684 -4.98939 1.42675 0.625466 -3.805 1.53944 -0.0250556 -4.80261 0.766289 
0.16805 -5.51958 0.963579 -0.0590449 -3.05148 0.720266 0.374813 -3.52141 0.353512 
0.461843 -3.50213 0.710965 -0.0239768 -2.4698 0.684422 -0.0904784 -4.25337 0.678092 
0.295643 -5.25889 1.10544 0.551112 -3.98943 1.45347 0.537469 -3.41443 1.13007 
0.0205044 -5.17339 0.750549 -0.115119 -3.68009 0.638252 0.423131 -4.39839 1.25741 
0.508967 -3.33489 1.1552 0.112652 -5.22454 0.809131 0.415608 -3.24882 0.637497 
-0.0852725 -4.70714 0.607584 -0.113121 -3.18656 0.619739 -0.0781871 -2.68497 0.637388 
0.304443 -3.18837 0.198635 0.464115 -3.48305 1.18353 0.249337 -4.74087 0.962932 
-0.148215 -4.1603 0.524376 -0.0390191 -4.94403 0.580404 0.388591 -3.03858 0.635544 
-0.169336 -3.58341 0.491531 0.363646 -3.75613 1.05864 0.408666 -2.9896 0.849297 
0.254704 -2.8846 0.113011 0.0657336 -4.8042 0.657518 -0.149514 -2.9991 0.51091 
-0.144308 -4.51633 0.435841 0.215334 -4.1066 0.825776 0.369558 -2.96586 0.869247 
0.309432 -2.73969 0.432046 -0.203321 -3.9358 0.364321 -0.0891294 -4.59066 0.410193 
0.221773 -2.62004 0.081238 -0.211837 -3.34009 0.353655 0.301983 -3.09363 0.824073 
0.293515 -2.57145 0.486284 0.0465206 -4.22499 0.538298 -0.202116 -4.19269 0.274414 
0.191279 -3.38667 0.68463 0.197687 -2.34971 0.0944534 0.269597 -2.46144 0.524807 
-0.249843 -3.65074 0.203439 -0.166297 -4.18416 0.231147 -0.0650603 -3.96078 0.316661 
0.23651 -2.49073 0.56044 0.0651848 -3.33944 0.451819 0.185726 -2.14175 0.150748 
-0.243219 -3.8169 0.105456 0.170961 -2.65395 0.523128 0.178436 -2.01133 0.238536 
-0.164184 -3.64229 0.119407 0.162101 -2.03022 0.332209 -0.0265076 -3.04975 0.252618 
0.100086 -2.37724 0.361752 
