# vtk DataFile Version 3.0
vtk output
ASCII
DATASET POLYDATA
POINTS 724 float
10.857 -11.6222 12.0762 11.1695 -12.2461 12.0182 10.5233 -10.8325 12.2603 
11.4517 -12.7537 12.0419 10.262 -10.0259 12.5787 10.739 -11.1929 12.4689 
11.7187 -13.197 12.1294 10.0962 -9.22566 13.053 11.0285 -11.785 12.4278 
10.4972 -10.5162 12.7499 11.2925 -12.262 12.4416 11.5368 -12.6871 12.4511 
11.9468 -13.5621 12.2624 10.302 -9.79821 13.1076 10.046 -8.49403 13.6712 
10.8047 -11.17 12.8277 11.7411 -12.9779 12.589 11.1116 -11.7806 12.8234 
10.1921 -9.08273 13.6003 10.5496 -10.4183 13.1697 12.1544 -13.8863 12.4356 
10.1081 -7.8405 14.435 11.4176 -12.3192 12.8466 11.956 -13.2974 12.711 
10.1691 -8.3839 14.2107 10.3692 -9.62785 13.62 10.8301 -11.0603 13.2053 
11.6807 -12.7127 12.9815 12.3434 -14.1755 12.6447 11.1238 -11.6659 13.202 
10.2324 -7.3701 15.1539 10.2861 -8.82678 14.211 10.5857 -10.2461 13.6169 
12.1579 -13.5884 12.8709 10.2733 -7.99852 14.8678 11.3971 -12.1447 13.2608 
11.9269 -13.0657 13.1228 10.836 -10.8847 13.6085 10.434 -9.38804 14.1512 
10.4098 -6.94302 15.9476 12.5203 -14.4391 12.8945 12.3548 -13.8867 13.0473 
11.6555 -12.5407 13.3825 10.3828 -7.47271 15.5679 11.1006 -11.4688 13.6117 
10.3815 -8.53144 14.7977 10.6189 -10.0066 14.0933 12.1703 -13.4168 13.2733 
11.3654 -11.9592 13.6735 10.442 -7.8863 15.4812 10.5094 -9.10801 14.6983 
10.8376 -10.6423 14.0511 11.9139 -12.9158 13.5082 12.6615 -14.6407 13.1384 
10.5479 -7.00862 16.3348 10.6235 -6.53259 16.7936 12.4549 -13.9264 13.3423 
11.0819 -11.2412 14.0427 11.6314 -12.3884 13.7754 10.5217 -8.3469 15.387 
10.6669 -9.72649 14.6025 12.1914 -13.3309 13.6021 10.5803 -7.32544 16.256 
12.6392 -14.2432 13.5183 11.3411 -11.768 14.0881 10.8583 -10.369 14.528 
10.6204 -8.87062 15.2654 11.9095 -12.8061 13.8715 10.6205 -7.69107 16.1468 
10.7405 -6.68427 17.0692 10.8286 -6.1507 17.5615 12.8078 -14.8341 13.4382 
12.4041 -13.6488 13.7253 11.0818 -10.992 14.4959 11.6141 -12.2439 14.1623 
10.747 -9.45601 15.1419 10.6754 -8.11818 16.0126 10.7659 -7.0295 16.9652 
12.1572 -13.1563 13.993 12.5964 -13.9468 13.8772 11.0171 -5.75961 18.2538 
10.9246 -6.38756 17.7391 12.7937 -14.4271 13.8355 11.3315 -11.5634 14.5124 
10.9079 -10.0861 15.039 10.7498 -8.61094 15.8624 10.7926 -7.42853 16.8062 
11.88 -12.651 14.2635 12.9442 -14.992 13.7669 12.3932 -13.4886 14.1283 
10.94 -6.80247 17.579 11.1058 -10.7231 14.9765 10.834 -7.86549 16.6362 
10.8497 -9.17134 15.7123 11.5941 -12.0607 14.5735 12.1443 -13.0256 14.3809 
11.1092 -5.87598 18.4732 12.6646 -13.9349 14.2053 11.2271 -5.23456 19.0195 
10.9623 -7.22101 17.4003 12.8949 -14.4592 14.1865 10.8928 -8.35055 16.4634 
10.9826 -9.78532 15.5837 11.3357 -11.3198 14.9676 11.1052 -6.25082 18.3075 
11.8675 -12.5051 14.6593 13.0621 -15.1028 14.0927 12.4362 -13.447 14.4696 
10.9979 -7.65589 17.2218 11.1124 -6.6467 18.1326 10.9734 -8.88786 16.3009 
11.1536 -10.4224 15.4952 11.592 -11.8621 15.0013 12.1632 -12.9428 14.7406 
12.723 -13.9082 14.5318 11.2903 -5.52116 19.1046 11.4133 -4.65632 19.6983 
11.1322 -7.05293 17.9539 12.9695 -14.4274 14.5401 11.0484 -8.11705 17.0552 
11.0831 -9.47687 16.1591 11.3632 -11.0498 15.453 11.2752 -6.01189 18.8748 
13.1649 -15.1742 14.4088 11.8733 -12.3621 15.0532 12.46 -13.3693 14.8154 
11.4844 -4.81783 19.853 11.1672 -7.46072 17.7969 11.2778 -6.45721 18.6693 
11.116 -8.62107 16.8987 11.229 -10.1071 16.0475 11.6087 -11.6422 15.4489 
12.7375 -13.7941 14.8803 12.1633 -12.8083 15.119 11.4532 -5.32982 19.6117 
13.1156 -14.6628 14.7785 11.6255 -3.85591 20.4775 11.3032 -6.85266 18.5168 
11.2128 -7.89392 17.6468 11.2077 -9.17775 16.7547 11.4155 -10.7542 15.9709 
12.4433 -13.2085 15.193 11.4336 -5.84082 19.366 11.8771 -12.1652 15.4803 
12.9486 -14.134 15.0025 13.2758 -15.2202 14.7893 11.6667 -4.26198 20.4972 
11.3382 -7.24996 18.3754 11.272 -8.36671 17.5022 11.4492 -6.24309 19.2191 
11.3312 -9.78706 16.6283 12.6877 -13.5491 15.2939 11.6388 -11.3678 15.9397 
12.153 -12.6134 15.5401 11.6014 -5.06644 20.0932 13.1781 -14.5748 15.165 
11.8316 -2.99623 21.2397 11.3813 -7.66826 18.2387 11.4762 -6.63173 19.084 
11.3509 -8.88971 17.3631 12.925 -13.9083 15.3963 11.4919 -10.4234 16.5329 
11.8887 -11.9086 15.9552 12.4179 -12.9919 15.6301 11.6052 -5.53984 19.9308 
13.3727 -15.2301 15.1627 11.775 -4.21748 20.8028 11.9072 -3.22756 21.4042 
11.5102 -7.02757 18.9524 11.4357 -8.11989 18.1054 11.4563 -9.46379 17.2361 
11.6231 -5.96134 19.7917 11.6903 -11.0407 16.4827 12.6778 -13.3522 15.7303 
12.1509 -12.3654 16.0141 13.1102 -14.1903 15.561 11.7764 -4.71643 20.6627 
13.3076 -14.6791 15.5482 12.0807 -2.02931 22.1623 11.5515 -7.4414 18.8253 
11.5067 -8.61335 17.9769 11.6491 -6.37139 19.6571 11.5946 -10.0715 17.135 
11.9202 -11.597 16.4852 12.4195 -12.7706 16.0982 12.9074 -13.6633 15.8734 
11.7835 -5.18319 20.5176 13.4712 -15.2063 15.5942 11.9632 -3.60473 21.4699 
11.6035 -7.88206 18.7027 11.6815 -6.7844 19.5274 11.6001 -9.15091 17.8593 
11.7694 -10.679 17.0749 12.1406 -2.44843 22.2433 11.7992 -5.63341 20.3725 
13.1609 -14.0899 15.9648 12.1739 -12.0874 16.5293 12.6765 -13.1233 16.2176 
11.9629 -4.17037 21.312 13.3762 -14.5808 15.9937 12.3461 -1.22321 23.144 
11.7218 -7.21007 19.4039 11.6705 -8.35495 18.5875 11.8223 -6.07761 20.2305 
11.7218 -9.72448 17.7632 11.9806 -11.2543 17.0598 12.437 -12.5101 16.6134 
11.965 -4.71399 21.1365 12.9476 -13.522 16.3182 12.1664 -2.97706 22.1867 
13.5565 -15.1498 16.031 11.7731 -7.65283 19.2906 11.8525 -6.52483 20.0944 
11.7568 -8.86363 18.4838 13.2087 -13.9662 16.3982 11.8776 -10.3164 17.6976 
11.9762 -5.23476 20.9651 12.3854 -1.77301 23.1248 12.2212 -11.7707 17.0905 
12.7143 -12.9306 16.6998 12.1564 -3.60294 21.9812 13.4392 -14.4758 16.4406 
12.618 -0.596264 24.1542 11.8923 -6.97465 19.9729 11.8386 -8.11796 19.1881 
11.9948 -5.74894 20.798 11.8676 -9.40773 18.3967 12.1503 -4.21807 21.7613 
12.07 -10.8965 17.67 12.9922 -13.3627 16.7825 12.4862 -12.2542 17.1414 
12.3837 -2.39384 22.9499 13.6301 -15.0621 16.4803 12.0236 -6.24534 20.6541 
11.9435 -7.43228 19.8668 12.1525 -4.83376 21.5399 11.9212 -8.61029 19.0977 
13.2585 -13.8291 16.852 12.0091 -9.97728 18.3322 12.3577 -3.07148 22.6675 
12.2982 -11.4537 17.6703 12.6358 -1.23154 24.0262 12.7639 -12.7174 17.2035 
13.4956 -14.3503 16.9015 12.1692 -5.40648 21.3583 12.0633 -6.7321 20.5333 
12.3327 -3.79888 22.3493 12.0084 -7.90279 19.7746 12.8717 -0.0666738 25.1119 
12.0258 -9.1315 19.0209 12.1857 -10.5604 18.2881 13.0417 -13.181 17.2688 
12.6041 -1.92442 23.7144 12.5542 -11.9785 17.6926 13.6933 -14.9437 16.9448 
12.5393 -2.75836 23.2418 12.3336 -4.44632 22.1125 12.1972 -5.95144 21.2099 
12.1148 -7.21706 20.4321 13.3074 -13.6665 17.3303 12.0896 -8.38995 19.6956 
12.1574 -9.6818 18.9565 12.3982 -11.1347 18.2656 12.8246 -12.4785 17.7314 
12.8689 -0.818002 24.8595 13.5456 -14.1961 17.3837 12.7587 -1.82344 24.1787 
12.5228 -3.43523 22.9417 12.349 -5.053 21.9238 12.2364 -6.48145 21.0892 
12.1796 -7.70459 20.3483 12.1907 -8.8977 19.6263 13.0959 -12.9698 17.7812 
13.0884 0.462043 25.9353 12.3206 -10.2515 18.9044 12.6396 -11.6853 18.2644 
13.747 -14.7949 17.4255 12.9673 -1.01567 25.07 12.7352 -2.4805 23.8481 
12.5245 -4.06606 22.7042 12.3752 -5.64004 21.7703 13.3561 -13.4729 17.8356 
12.2875 -7.00267 20.9917 12.2601 -8.19674 20.2774 12.316 -9.42691 19.5651 
12.8969 -12.2125 18.2839 12.5172 -10.8229 18.8684 13.1368 -0.0622317 25.8916 
13.5914 -14.0099 17.891 12.726 -3.08746 23.5688 12.958 -1.61625 24.7946 
12.5364 -4.68612 22.5055 12.4124 -6.21554 21.6473 12.3519 -7.51587 20.9134 
12.3593 -8.69606 20.2154 13.1568 -12.7275 18.3206 12.4691 -9.97342 19.5119 
12.7416 -11.3823 18.8518 13.2916 1.1217 26.6831 13.7926 -14.6176 17.9203 
13.1679 -0.657881 25.7451 12.725 -3.69125 23.3213 12.9457 -2.18956 24.5008 
12.5584 -5.30607 22.342 13.4072 -13.247 18.3692 12.4622 -6.77896 21.5512 
12.4318 -8.01939 20.8492 12.4808 -9.20509 20.1588 12.9822 -11.926 18.8568 
12.6517 -10.5277 19.4706 13.3348 0.44785 26.5622 13.6353 -13.7897 18.4269 
13.1638 -1.281 25.4618 12.9366 -2.75409 24.2167 12.7314 -4.30989 23.1057 
12.592 -5.92522 22.2129 12.5256 -7.32407 21.4767 12.5303 -8.51502 20.7931 
13.2268 -12.4591 18.8834 12.6267 -9.72507 20.1083 12.8587 -11.0811 19.4457 
13.8314 -14.4146 18.4235 13.4576 1.81733 27.2404 13.3569 -0.240584 26.3549 
13.1538 -1.86228 25.1569 12.9315 -3.33081 23.9522 13.4638 -12.992 18.9288 
12.7474 -4.94887 22.9275 12.6391 -6.53317 22.1154 12.6049 -7.84491 21.4173 
12.6496 -9.00685 20.7416 13.0805 -11.6293 19.4421 12.7972 -10.2541 20.0662 
13.5081 1.04361 27.1102 13.6806 -13.5363 18.9931 13.3572 -0.906843 26.0704 
13.1443 -2.42077 24.8582 12.9321 -3.93462 23.7182 12.7759 -5.60265 22.7885 
12.7009 -7.1149 22.043 12.7031 -8.3418 21.3657 13.3071 -12.1725 19.4621 
12.7901 -9.50087 20.6938 12.9872 -10.7894 20.0383 13.8648 -14.1925 18.9229 
13.5995 2.51076 27.6514 13.5334 0.268514 26.8947 13.3508 -1.51647 25.7647 
13.1369 -2.98152 24.5781 12.9417 -4.57427 23.5231 13.5279 -12.7146 19.508 
12.8189 -6.25198 22.6874 12.7797 -7.65821 21.9868 12.8207 -8.8208 21.3172 
13.1889 -11.3288 20.0306 12.9495 -10.0007 20.6531 13.8938 -13.961 19.4011 
13.1233 -10.5096 20.6254 12.9561 -9.2912 21.2717 12.8773 -8.16191 21.9381 
12.8784 -6.87206 22.6156 13.5394 -0.463673 26.6178 13.343 -2.08552 25.4623 
12.9635 -5.24529 23.3726 13.1339 -3.56589 24.3285 13.6632 1.69546 27.5525 
13.3944 -11.8684 20.0483 13.7312 -13.2564 19.5883 13.1055 -9.76153 21.2327 
13.3049 -11.0278 20.6174 12.9929 -8.63305 21.8914 12.9561 -7.44297 22.5616 
13.0012 -5.92491 23.2661 13.5943 -12.4033 20.0993 13.1378 -4.19035 24.1192 
13.3362 -2.6397 25.1774 13.5374 -1.12355 26.3191 13.6983 0.861061 27.3615 
13.7246 3.16596 27.9487 13.9223 -13.7065 19.8893 13.2641 -10.2399 21.2066 
13.1232 -9.08423 21.8468 13.4878 -11.5488 20.6383 13.0526 -7.95931 22.5145 
13.0575 -6.58081 23.194 13.1528 -4.85679 23.9583 13.3316 -3.20558 24.9209 
13.5326 -1.72242 26.022 13.7129 0.0615233 27.1064 13.7779 -12.9158 20.2041 
13.8043 2.36681 27.9023 13.2631 -9.52824 21.8089 13.4265 -10.7283 21.2017 
13.1658 -8.42871 22.4688 13.1336 -7.18214 23.1425 13.1837 -5.55018 23.8456 
[...]
POINT_DATA 724
VECTORS velocity double
1.46578 -2.20964 1.59565 1.58948 -1.58232 1.68054 1.27214 -2.97629 1.45365 
1.66074 -1.07584 1.71628 1.0585 -3.71686 1.30367 1.34853 -2.76509 1.45911 
1.69557 -0.650578 1.71303 0.858436 -4.42951 1.18736 1.48306 -2.18992 1.53752 
1.16556 -3.45119 1.32499 1.57064 -1.7064 1.58072 1.62995 -1.25827 1.60841 
1.70232 -0.323969 1.68 0.972643 -4.12082 1.20826 0.710018 -5.10158 1.14838 
1.31489 -2.9379 1.3719 1.64726 -0.985563 1.58104 1.44893 -2.34472 1.43112 
0.799956 -4.7709 1.13748 1.10613 -3.71257 1.23125 1.68971 -0.0573798 1.62385 
0.628036 -5.7622 1.2118 1.5433 -1.77991 1.46774 1.6549 -0.678313 1.54909 
0.67454 -5.4049 1.14898 0.895277 -4.45594 1.12838 1.24994 -3.19067 1.26419 
1.57991 -1.3844 1.44646 1.66176 0.157247 1.54866 1.38213 -2.60341 1.3085 
0.614384 -6.29082 1.34508 0.722196 -5.17018 1.10813 1.0203 -4.0244 1.13009 
1.64429 -0.416897 1.49571 0.624965 -5.86574 1.21352 1.46401 -2.11046 1.3219 
1.59254 -1.02746 1.40915 1.15958 -3.49937 1.14628 0.804445 -4.81206 1.06714 
0.644825 -6.79429 1.54109 1.62004 0.330251 1.45493 1.62042 -0.163961 1.42927 
1.50494 -1.69887 1.30081 0.613003 -6.38967 1.37156 1.28423 -2.94846 1.1686 
0.656701 -5.54647 1.12569 0.916089 -4.36939 1.03901 1.58675 -0.6798 1.35838 
1.36953 -2.44966 1.17119 0.606893 -6.12834 1.2714 0.716683 -5.16305 1.04301 
1.04563 -3.85444 1.02861 1.5243 -1.29813 1.26812 1.57482 0.445439 1.36223 
0.647856 -6.8683 1.58097 0.710435 -7.24144 1.77286 1.57661 -0.181393 1.32492 
1.16903 -3.30716 1.02917 1.42095 -1.99011 1.15337 0.615568 -5.82217 1.16388 
0.807281 -4.71677 0.97552 1.53219 -0.847502 1.23866 0.621268 -6.65972 1.48582 
1.53822 0.0722199 1.25113 1.26329 -2.77792 1.0232 0.922615 -4.20672 0.929563 
0.647641 -5.45364 1.05226 1.45251 -1.52022 1.13102 0.599132 -6.4036 1.37329 
0.698841 -7.20146 1.76893 0.788209 -7.56407 1.97808 1.51589 0.538745 1.24888 
1.51589 -0.530338 1.191 1.04269 -3.65567 0.902719 1.32901 -2.25989 1.00906 
0.709805 -5.02218 0.948042 0.587149 -6.09273 1.24442 0.654276 -6.96728 1.65383 
1.45489 -1.13371 1.09134 1.48485 -0.259036 1.12948 0.868185 -7.78072 2.14384 
0.754974 -7.43986 1.92953 1.47444 0.174933 1.1303 1.14618 -3.09276 0.88419 
0.801835 -4.5277 0.862392 0.593438 -5.72566 1.1055 0.611282 -6.67428 1.51286 
1.36163 -1.7972 0.981883 1.44908 0.597921 1.12714 1.43932 -0.78095 1.04165 
0.689306 -7.16461 1.78715 0.910934 -3.98082 0.801138 0.578095 -6.3403 1.35912 
0.626323 -5.30037 0.966131 1.21844 -2.55692 0.863023 1.36988 -1.36654 0.944775 
0.850053 -7.71346 2.12479 1.42178 -0.325564 1.00872 0.965031 -7.91365 2.29515 
0.63097 -6.85735 1.63385 1.4063 0.148459 1.00356 0.560211 -5.96254 1.19534 
0.689779 -4.81858 0.839719 1.01403 -3.4115 0.75932 0.782971 -7.51481 2.01017 
1.26185 -2.04579 0.837153 1.38167 0.624274 1.01032 1.36837 -0.886029 0.914868 
0.581998 -6.51822 1.47089 0.714757 -7.264 1.87697 0.564157 -5.5408 1.02826 
0.777799 -4.28506 0.737648 1.0967 -2.83813 0.728271 1.28603 -1.52293 0.813238 
1.3544 -0.400518 0.890209 0.912483 -7.79958 2.22731 1.05802 -7.89326 2.39865 
0.65018 -6.97182 1.72985 1.33554 0.074132 0.879606 0.545189 -6.14746 1.30013 
0.595537 -5.07136 0.867116 0.875487 -3.70723 0.663438 0.823541 -7.59767 2.09533 
1.3155 0.627246 0.901356 1.15641 -2.26274 0.704702 1.29012 -1.02196 0.789994 
1.02657 -7.83625 2.36105 0.593087 -6.65279 1.57631 0.743403 -7.34635 1.95678 
0.524335 -5.73693 1.12112 0.655752 -4.54847 0.723689 0.966387 -3.0997 0.614174 
1.27868 -0.559543 0.767907 1.1882 -1.72447 0.68314 0.938496 -7.77037 2.25996 
1.27305 0.23253 0.793979 1.1743 -7.65109 2.49282 0.674846 -7.07529 1.82141 
0.543174 -6.29726 1.41057 0.525334 -5.27929 0.938253 0.738259 -3.97059 0.60958 
1.19596 -1.24365 0.660829 0.846769 -7.60613 2.13638 1.033 -2.50996 0.581335 
1.24441 -0.236483 0.725381 1.23535 0.608788 0.776929 1.10678 -7.69103 2.42765 
0.610838 -6.77102 1.67675 0.503421 -5.89893 1.23133 0.772437 -7.40275 2.02137 
0.553828 -4.76803 0.761977 1.18095 -0.856629 0.630001 0.823577 -3.36588 0.530296 
1.06972 -1.97254 0.555008 0.973353 -7.72699 2.29344 1.19193 0.124851 0.67051 
1.30415 -7.23579 2.5986 0.550958 -6.42706 1.5186 0.701517 -7.15872 1.89818 
0.479125 -5.45214 1.04058 1.15643 -0.48347 0.59948 0.608677 -4.20852 0.609459 
0.891151 -2.77684 0.4783 1.07769 -1.5113 0.526796 0.887514 -7.61774 2.18869 
1.15645 0.573668 0.6629 1.10598 -7.60541 2.41752 1.26958 -7.28599 2.56762 
0.632117 -6.87173 1.76279 0.497241 -6.03849 1.34514 0.476626 -4.95572 0.847051 
0.808953 -7.4509 2.08056 0.676536 -3.6212 0.493623 1.0694 -1.08624 0.49893 
0.930315 -2.23937 0.440423 1.11248 -0.225537 0.551563 1.01813 -7.63095 2.32774 
1.10058 0.173368 0.556405 1.4957 -6.81137 2.8275 0.564622 -6.53998 1.61334 
0.453701 -5.602 1.15739 0.732268 -7.23192 1.96282 0.498904 -4.41622 0.666897 
0.73744 -3.0391 0.413487 0.946204 -1.74609 0.409183 1.03999 -0.74392 0.461679 
0.933262 -7.58357 2.23254 1.06509 0.518913 0.542164 1.20323 -7.3675 2.50241 
0.500665 -6.16078 1.4486 0.656366 -6.96206 1.83309 0.425662 -5.11837 0.96122 
0.54024 -3.84727 0.516538 1.43069 -6.98388 2.75878 0.849474 -7.46695 2.12857 
1.01729 -0.327926 0.441347 0.780613 -2.48125 0.358402 0.938264 -1.32014 0.377344 
1.09954 -7.47284 2.39745 1.00137 0.0758242 0.438536 1.73243 -6.76327 3.22675 
0.58143 -6.64082 1.68967 0.44332 -5.73378 1.26968 0.765791 -7.28389 2.01357 
0.417596 -4.59297 0.768388 0.588005 -3.2656 0.402834 0.800036 -1.97375 0.317702 
0.998725 -7.5022 2.29051 0.92731 -0.873459 0.354216 1.3279 -7.14304 2.643 
0.972743 0.452913 0.433127 0.509098 -6.26994 1.53287 0.681817 -7.03582 1.88563 
0.396573 -5.26019 1.08015 0.91318 -0.435037 0.339819 0.429987 -4.03302 0.593261 
0.900982 -7.44813 2.1786 1.62748 -6.95102 3.07057 0.627554 -2.69919 0.323046 
0.808753 -1.47409 0.287572 1.19969 -7.28697 2.49978 0.900208 -0.0129496 0.336771 
1.96136 -7.0832 3.7198 0.599171 -6.72861 1.7457 0.441572 -5.85057 1.36348 
0.803625 -7.30892 2.05643 0.364707 -4.74264 0.886988 1.07647 -7.37506 2.36478 
0.456626 -3.45448 0.449223 0.808708 -0.993286 0.26655 0.657527 -2.14301 0.266991 
1.48218 -7.07116 2.86648 0.878027 0.377614 0.335815 0.709106 -7.0909 1.92536 
0.519092 -6.36677 1.59424 0.955804 -7.38412 2.22936 0.381706 -5.3842 1.18369 
0.803524 -0.53382 0.254341 0.350822 -4.18813 0.701561 1.31941 -7.17249 2.65421 
0.489788 -2.86568 0.338514 1.82187 -7.21039 3.4527 0.676528 -1.60944 0.228654 
0.795665 -0.101814 0.250768 0.844117 -7.29704 2.09558 0.617409 -6.80288 1.78474 
1.15441 -7.26715 2.45456 0.44333 -5.95407 1.43232 2.10585 -7.4599 4.14286 
0.333071 -4.87342 0.997929 0.35524 -3.60342 0.534821 0.68622 -1.10462 0.203425 
1.63772 -7.21223 3.14104 0.521109 -2.28676 0.259224 0.780464 0.294716 0.251765 
1.40943 -7.19583 2.79859 1.01568 -7.30156 2.29241 0.738106 -7.11994 1.95751 
0.529159 -6.45232 1.63479 0.689103 -0.63223 0.188565 0.374213 -5.49435 1.262 
0.299268 -4.32102 0.812471 0.373534 -3.00609 0.397391 0.545667 -1.73292 0.204841 
1.95204 -7.56806 3.77714 0.687204 -0.195112 0.182285 1.68487 -7.39287 3.25775 
1.23709 -7.22343 2.57092 0.889978 -7.25707 2.14214 0.636261 -6.86002 1.81222 
0.445911 -6.04677 1.47701 0.314457 -4.9902 1.08592 0.562164 -1.21387 0.168847 
2.14356 -7.59449 4.41222 0.282935 -3.73703 0.637353 0.398037 -2.41689 0.292752 
0.680283 0.205648 0.18309 1.90114 -7.71495 3.7112 1.49922 -7.32114 2.96598 
1.08616 -7.23797 2.38255 0.771244 -7.12434 1.99198 0.571666 -0.733624 0.146386 
0.53914 -6.52631 1.6598 0.36986 -5.59407 1.31395 0.267123 -4.44598 0.908511 
0.421737 -1.85297 0.21749 0.283074 -3.13914 0.483791 2.05804 -7.81712 4.16418 
0.575535 -0.293934 0.13419 1.3303 -7.27121 2.72453 1.74706 -7.6482 3.42164 
0.945842 -7.20957 2.20953 0.657798 -6.90012 1.83719 0.448688 -6.13105 1.50268 
0.30309 -5.10012 1.14802 0.440846 -1.32555 0.165432 0.234857 -3.87069 0.736545 
0.294757 -2.54703 0.358576 2.09938 -7.35692 4.5744 0.57869 0.111932 0.131946 
1.94274 -7.9352 3.8852 1.16956 -7.23206 2.5088 1.58709 -7.53372 3.15236 
0.812366 -7.11155 2.04065 0.454396 -0.840394 0.130769 0.550775 -6.5901 1.6778 
0.367208 -5.68806 1.34431 0.247558 -4.56999 0.981912 0.311647 -1.97815 0.262439 
0.218302 -3.2791 0.578486 2.03732 -7.74167 4.2912 0.462469 -0.400156 0.109045 
1.80709 -7.90265 3.59911 1.42421 -7.41443 2.90126 1.01456 -7.18353 2.30789 
0.685247 -6.92437 1.87041 0.452925 -6.20982 1.51738 0.296119 -5.20706 1.18688 
0.328524 -1.44507 0.191932 0.204808 -4.01047 0.819304 0.215253 -2.68928 0.44149 
0.478265 0.0141823 0.099735 2.01202 -6.83527 4.6445 1.94654 -7.98549 4.0017 
1.66109 -7.77852 3.33131 1.25933 -7.30623 2.66401 0.342407 -0.956098 0.142051 
0.864895 -7.0955 2.11422 0.566855 -6.64364 1.69889 0.36664 -5.77884 1.36009 
0.236131 -4.69483 1.03183 0.221279 -2.11841 0.329274 0.175679 -3.43291 0.66536 
1.9866 -7.38784 4.37534 0.351529 -0.516858 0.108069 1.83385 -8.05187 3.72479 
1.5069 -7.61741 3.07626 1.09383 -7.20706 2.43751 0.722175 -6.93572 1.92278 
0.460782 -6.28299 1.53032 0.292713 -5.3123 1.20807 0.231593 -1.58059 0.241717 
0.187506 -4.1565 0.880417 0.15938 -2.85253 0.525734 0.383153 -0.0874015 0.0861392 
1.90778 -6.22509 4.64563 1.92783 -7.81906 4.09043 1.706 -7.97604 3.46688 
1.34505 -7.4508 2.82893 0.929743 -7.0967 2.21795 0.241936 -1.08669 0.17619 
0.59061 -6.68496 1.73381 0.369619 -5.86632 1.36961 0.230634 -4.81963 1.06175 
0.153467 -2.28538 0.404902 0.150341 -3.60094 0.735311 0.298105 -0.192635 0.0882439 
0.124114 -3.03886 0.5998 0.179325 -4.30636 0.920829 0.293344 -5.41486 1.21889 
0.474954 -6.3475 1.55182 1.83944 -8.04599 3.81736 1.56622 -7.8194 3.22022 
0.771226 -6.94249 2.00268 1.17661 -7.29186 2.58677 1.91572 -6.83895 4.42749 
0.154407 -1.74798 0.305384 0.24809 -0.647448 0.129277 0.137859 -3.77868 0.785842 
0.1076 -2.48429 0.477699 0.230315 -4.94235 1.07789 0.377977 -5.94725 1.38235 
0.625129 -6.71345 1.79269 0.157769 -1.25583 0.227431 1.00388 -7.13566 2.34786 
1.41513 -7.62695 2.97767 1.7298 -8.07586 3.5658 1.89151 -7.42996 4.16552 
1.79983 -5.67373 4.5801 0.21921 -0.312693 0.102913 0.105315 -3.24284 0.657885 
0.178162 -4.45545 0.944993 0.0985396 -1.95575 0.372808 0.299033 -5.51128 1.22799 
0.498019 -6.39876 1.59251 0.832798 -6.96067 2.11224 1.25251 -7.42415 2.73461 
1.6051 -7.97197 3.32905 1.83091 -7.84966 3.89628 0.157466 -0.829444 0.170478 
1.82993 -6.21711 4.43682 0.134857 -3.95818 0.81891 0.0809134 -2.71072 0.539659 
0.235215 -5.05852 1.08795 0.393643 -6.01622 1.40889 0.672037 -6.73466 1.88128 
1.08026 -7.22046 2.48995 0.0932894 -1.4723 0.287344 1.46721 -7.79265 3.09766 
1.74067 -8.03846 3.6443 1.83722 -6.86102 4.22483 1.6946 -5.24253 4.45435 
0.144375 -0.464013 0.129402 0.0989437 -3.45395 0.699122 0.182871 -4.59726 0.959369 
0.0633932 -2.19864 0.43442 0.310905 -5.59605 1.24539 0.531726 -6.43506 1.66093 
0.902391 -7.00718 2.2425 1.31648 -7.57707 2.86568 1.63035 -8.03743 3.41148 
1.80817 -7.44397 3.9725 0.0886114 -1.03599 0.218603 1.73353 -5.62971 4.38825 
0.139012 -4.13041 0.83945 0.0695972 -2.95021 0.586628 0.245599 -5.16193 1.10111 
0.417935 -6.06843 1.45941 0.729818 -6.76271 1.99648 0.0507921 -1.71641 0.343112 
1.15007 -7.34051 2.62487 1.74157 -7.82386 3.71806 1.50687 -7.91552 3.19272 
1.76414 -6.20263 4.25044 0.0802121 -0.65216 0.163937 1.59334 -4.9288 4.27803 
0.101622 -3.65879 0.726182 0.19283 -4.72442 0.972185 0.0460629 -2.45579 0.482824 
0.32966 -5.66298 1.28177 0.57626 -6.4628 1.75924 0.972259 -7.08921 2.37656 
1.36608 -7.71735 2.96976 1.76616 -6.86186 4.03687 1.65061 -7.97118 3.49015 
0.0408723 -1.27378 0.265667 1.62852 -5.13403 4.27026 0.148718 -4.28572 0.85446 
0.0695668 -3.18492 0.618844 0.261539 -5.2454 1.12775 0.451174 -6.10399 1.53995 
0.79331 -6.81371 2.12522 0.027426 -1.9811 0.389019 1.20775 -7.47293 2.73801 
1.53675 -7.95587 3.26767 1.73092 -7.34032 3.81522 1.67865 -5.59969 4.2177 
0.0314285 -0.880267 0.20081 0.110736 -3.84507 0.744702 0.207469 -4.82846 0.993081 
1.49371 -4.70431 4.05685 0.0422668 -2.71392 0.5177 0.355261 -5.70855 1.34575 
0.628876 -6.49694 1.87906 1.03443 -7.19784 2.49648 1.40339 -7.81491 3.04758 
1.66142 -7.7113 3.57191 1.69104 -6.00497 4.09852 0.0124561 -1.54066 0.306392 
1.55536 -4.90488 4.12381 0.0774289 -3.40227 0.640924 0.16274 -4.41454 0.872721 
0.28248 -5.30274 1.17756 0.492064 -6.13247 1.64758 0.0193976 -2.25485 0.423656 
0.854996 -6.89361 2.24916 1.25164 -7.59097 2.82287 1.5588 -7.8713 3.33346 
1.6927 -6.62809 3.90466 4.88272e-05 -1.14684 0.234828 0.124346 -4.00234 0.762562 
1.59679 -5.277 4.077 0.048144 -2.95911 0.542268 0.225788 -4.90129 1.03196 
0.386436 -5.73653 1.4388 1.40694 -4.56071 3.83183 0.684306 -6.55226 2.00356 
1.65382 -7.22942 3.65564 1.08433 -7.31301 2.59072 1.43041 -7.83848 3.10439 
0.000641951 -1.827 0.338591 0.0905075 -3.58967 0.659574 1.46254 -4.63006 3.93901 
0.179658 -4.50728 0.903834 1.6264 -5.89444 3.93724 0.306875 -5.33324 1.25541 
0.02282 -2.52199 0.448883 0.537166 -6.17046 1.76852 1.56838 -7.62478 3.39358 
0.908792 -6.99393 2.35333 1.28306 -7.66941 2.8806 -0.0143592 -1.4448 0.263346 
1.50984 -4.87586 3.95587 0.140565 -4.11908 0.788665 0.060401 -3.17602 0.561956 
0.245881 -4.93808 1.09561 1.61849 -6.61812 3.70959 0.420378 -5.76057 1.55114 
1.44749 -7.75706 3.14687 0.736794 -6.63391 2.11574 1.122 -7.41424 2.65711 
1.31932 -4.44923 3.58013 0.0021073 -2.11788 0.363354 1.54686 -5.34636 3.87978 
0.106394 -3.73372 0.682836 0.197252 -4.55553 0.955495 1.37336 -4.43584 3.72367 
1.55844 -7.21348 3.4422 0.331729 -5.34521 1.35552 0.0339585 -2.76413 0.468938 
0.58172 -6.23191 1.8841 1.30547 -7.68525 2.91855 0.95264 -7.10048 2.43179 
-0.013953 -1.76119 0.287306 1.42085 -4.56631 3.78945 0.0760667 -3.34831 0.58373 
1.55742 -5.99195 3.70914 0.156947 -4.1845 0.831144 0.264322 -4.94076 1.18147 
0.453711 -5.80017 1.66544 1.45379 -7.53767 3.18267 0.78171 -6.73383 2.20411 
1.15129 -7.4847 2.70129 1.23034 -4.35694 3.30497 0.0132391 -2.39353 0.384544 
1.45658 -4.87198 3.76585 0.122523 -3.82221 0.719139 0.211566 -4.55292 1.02669 
0.0491222 -2.95931 0.489226 1.52471 -6.64605 3.4732 1.28165 -4.28462 3.4737 
0.354237 -5.36046 1.46391 0.621239 -6.31847 1.97945 1.32329 -7.60767 2.94912 
0.986687 -7.19613 2.48421 1.32775 -4.32109 3.57947 -0.00182006 -2.07935 0.31178 
1.4746 -5.3521 3.65724 0.0926195 -3.46558 0.616656 0.16866 -4.1796 0.887986 
0.278674 -4.93222 1.28045 0.482607 -5.86517 1.76392 1.44826 -7.11374 3.22566 
0.817331 -6.83872 2.26544 1.17408 -7.49969 2.72864 1.13809 -4.27171 3.00412 
0.0304898 -2.63144 0.408875 1.35762 -4.47845 3.59324 0.0659345 -3.10577 0.519928 
0.220702 -4.52508 1.11384 0.132287 -3.81283 0.761237 0.371277 -5.39488 1.56182 
1.4616 -5.85965 3.48818 0.652674 -6.42076 2.04764 1.01246 -7.26361 2.51434 
1.33351 -7.38314 2.97822 1.18184 -4.161 3.17463 1.23419 -4.1367 3.3358 
0.0187961 -2.37911 0.346865 1.35927 -4.65905 3.52715 0.174837 -4.13805 0.961433 
0.285808 -4.92993 1.374 0.504706 -5.95385 1.8368 0.0997043 -3.43619 0.639457 
0.84298 -6.93213 2.3003 1.41792 -6.45779 3.26287 1.19136 -7.42376 2.74642 
1.04008 -4.18192 2.67227 0.060287 -2.94842 0.486045 1.22448 -4.0986 3.29981 
0.221105 -4.48449 1.19841 0.381572 -5.45628 1.63697 0.1367 -3.7596 0.817778 
0.674805 -6.52499 2.08794 1.36573 -5.0588 3.4277 1.03004 -7.27867 2.52543 
1.33019 -6.94157 3.01165 1.10653 -4.03183 2.94493 0.0404036 -2.60011 0.398798 
0.101091 -3.35668 0.663814 0.285643 -4.95274 1.44936 1.23551 -4.17252 3.29661 
0.171109 -4.05804 1.02951 0.51883 -6.05513 1.88118 0.859044 -6.99708 2.3113 
1.19929 -7.20492 2.7584 1.35144 -5.6021 3.2654 0.949492 -4.09144 2.35847 
0.0746934 -3.01688 0.543914 1.10802 -3.91184 2.9726 0.214107 -4.46361 1.27109 
0.129839 -3.63001 0.853468 0.385299 -5.54112 1.68482 0.686837 -6.61431 2.10114 
1.03971 -7.2091 2.52215 1.2405 -4.34407 3.25512 1.29939 -6.26756 3.03296 
1.00475 -3.94053 2.6066 0.161921 -3.99922 1.09532 0.279889 -5.00963 1.50142 
0.0616505 -2.76601 0.489081 1.09505 -3.83807 2.9421 0.524516 -6.15431 1.89763 
0.864783 -7.01005 2.29964 1.19259 -6.78453 2.76768 0.0969176 -3.21639 0.697371 
1.25088 -4.77833 3.17757 0.851064 -3.97592 2.01451 0.956886 -3.80625 2.46905 
0.124694 -3.58057 0.930272 0.202949 -4.49113 1.33038 0.383336 -5.64 1.70566 
0.687218 -6.66839 2.08708 1.03837 -7.01301 2.50612 1.11249 -3.89018 2.98021 
1.2331 -5.41828 3.01271 0.150844 -4.02014 1.17304 0.0742469 -2.85646 0.602637 
0.271015 -5.10224 1.52961 0.97167 -3.66717 2.5634 0.518929 -6.22783 1.88407 
0.859548 -6.94506 2.26698 1.16045 -6.16136 2.75922 0.0973676 -3.21996 0.809761 
1.12554 -4.09402 2.9725 0.764184 -3.85201 1.7121 0.115831 -3.60691 1.02966 
0.84423 -3.70448 2.07631 0.189865 -4.58133 1.37252 0.370853 -5.71771 1.69331 
1.0217 -6.65447 2.47662 1.13658 -4.6367 2.90342 0.676392 -6.66986 2.0473 
0.971178 -3.58771 2.58756 0.135063 -4.10418 1.2324 0.0770574 -2.93193 0.750767 
0.251691 -5.17175 1.51904 1.00367 -3.6774 2.68749 1.09768 -5.42097 2.70574 
0.84521 -6.7709 2.21783 0.501783 -6.25852 1.841 0.0877997 -3.27323 0.937561 
0.809604 -3.548 1.99596 0.670052 -3.68449 1.39078 0.0991612 -3.67949 1.10525 
0.163603 -4.62146 1.36226 0.856689 -3.41152 2.22689 1.02428 -4.02903 2.70037 
0.987616 -6.09494 2.43298 0.347534 -5.75444 1.64824 0.657525 -6.59934 1.98562 
0.103045 -4.08631 1.21891 0.0650323 -3.05323 0.900536 0.591895 -3.50986 1.13357 
0.710625 -3.40646 1.65766 0.885938 -3.389 2.36139 0.221945 -5.19171 1.47049 
1.00569 -4.59814 2.58588 0.82112 -6.44398 2.15425 0.478347 -6.23885 1.77412 
0.0701368 -3.50218 1.06305 0.74954 -3.23939 1.87904 0.127432 -4.58685 1.30645 
0.931597 -5.34515 2.36198 0.889315 -3.48024 2.38421 0.323002 -5.76468 1.58245 
0.629591 -6.42162 1.90131 0.0647194 -3.91922 1.14887 0.516037 -3.29733 0.897988 
0.617389 -3.22868 1.34842 0.0424898 -3.2679 0.996522 0.197536 -5.22007 1.40829 
0.783179 -5.95307 2.07283 0.88962 -3.82936 2.369 0.73374 -3.10488 1.87952 
0.447903 -6.13526 1.68041 0.10485 -4.62966 1.25455 0.851888 -4.57343 2.23434 
0.742772 -3.06537 1.96015 0.595889 -6.10409 1.79938 0.581267 -3.03837 1.27737 
0.291778 -5.69793 1.4858 0.0493264 -4.10594 1.13268 0.022798 -3.54475 1.03068 
0.447806 -3.05044 0.706812 0.771974 -3.29996 2.08354 0.734042 -5.291 1.97467 
0.164523 -5.15715 1.30928 0.413172 -5.91208 1.5616 0.567179 -2.86983 1.2932 
0.0713493 -4.56298 1.15484 0.753493 -3.77831 2.03806 0.629701 -2.8086 1.60628 
0.398286 -2.81395 0.591363 0.559866 -5.60888 1.6868 0.0134079 -3.93214 1.03121 
0.255188 -5.52448 1.35963 0.675714 -4.45611 1.85583 0.638782 -2.82255 1.70197 
0.484921 -2.65634 1.03903 0.118546 -4.95003 1.17121 0.379894 -5.52626 1.42576 
0.365937 -2.59968 0.541926 0.0284889 -4.32898 1.01938 0.636331 -3.03775 1.74363 
0.488713 -2.5078 1.13463 0.533344 -4.85637 1.58508 0.196363 -5.20381 1.20141 
0.600804 -3.535 1.68236 0.34561 -2.37189 0.55373 0.492762 -2.41145 1.22754 
0.0752591 -4.66466 1.01451 0.286687 -5.11684 1.23165 0.411777 -4.66654 1.35254 
0.507165 -2.45404 1.35153 0.499307 -3.65015 1.4611 0.34415 -2.18656 0.636347 
0.160235 -4.79113 1.03463 0.50418 -2.68403 1.40952 0.360423 -2.05711 0.788575 
0.287221 -4.40774 1.11471 0.392557 -2.05919 0.999693 0.396036 -3.41347 1.22874 
0.424473 -2.44945 1.20779 
