# vtk DataFile Version 3.0
vtk output
ASCII
DATASET POLYDATA
POINTS 724 float
9.95343 -10.2627 10.881 10.1402 -11.3245 10.7536 9.7829 -9.00349 11.1551 
10.335 -12.2229 10.7404 9.66743 -7.78574 11.5345 9.95382 -9.47714 11.3896 
10.5452 -13.0144 10.8227 9.60313 -6.59042 12.0124 10.1265 -10.4244 11.3001 
9.851 -8.41648 11.7448 10.2994 -11.2345 11.2785 10.4672 -11.9997 11.2564 
10.7453 -13.6533 10.9779 9.76943 -7.34771 12.1301 9.58992 -5.45056 12.5653 
10.064 -9.34173 11.8371 10.6401 -12.5055 11.4143 10.2595 -10.3016 11.8063 
9.72862 -6.27932 12.5939 9.95796 -8.17903 12.2489 10.9453 -14.1998 11.1956 
9.62446 -4.33636 13.199 10.4656 -11.2197 11.8002 10.8259 -13.0776 11.557 
9.71648 -5.1866 13.1055 9.88548 -7.01717 12.7021 10.1554 -9.08233 12.3163 
10.6764 -11.9029 11.951 11.1437 -14.6626 11.468 10.3481 -10.0099 12.3075 
9.68584 -3.44341 13.7734 9.84674 -5.82374 13.2115 10.0582 -7.85511 12.7784 
11.0166 -13.5861 11.758 9.79804 -4.5014 13.6808 10.5429 -10.7937 12.3656 
10.8866 -12.5359 12.118 10.2395 -8.74184 12.8233 9.99399 -6.61536 13.2702 
9.7753 -2.56096 14.4016 11.3446 -15.0588 11.7992 11.214 -14.0943 11.9875 
10.7485 -11.471 12.5071 9.83893 -3.54336 14.2156 10.4223 -9.60115 12.8498 
9.9469 -5.32704 13.7681 10.1552 -7.46345 13.32 11.1062 -13.1725 12.3032 
10.6162 -10.3708 12.9302 9.95402 -4.25083 14.2757 10.0987 -6.17714 13.8234 
10.3249 -8.33259 13.3599 10.9634 -12.1463 12.6545 11.5167 -15.3422 12.1248 
9.91375 -2.62558 14.8072 9.88965 -1.69326 15.0787 11.3545 -14.1076 12.3812 
10.5034 -9.18052 13.4046 10.8241 -11.0909 13.0538 10.0856 -5.00545 14.3411 
10.2567 -7.04276 13.8681 11.1947 -12.928 12.7571 10.0041 -3.21517 14.8551 
11.5505 -14.6315 12.6156 10.6964 -9.97438 13.4866 10.4219 -7.91597 13.9092 
10.2259 -5.81366 14.3864 11.046 -11.8446 13.1622 10.1071 -3.88132 14.8932 
10.0335 -1.96697 15.4187 10.0077 -0.941949 15.7085 11.7064 -15.5944 12.5249 
11.3913 -13.5119 12.9095 10.5972 -8.77193 13.9615 10.9054 -10.7519 13.5854 
10.3754 -6.6583 14.4253 10.226 -4.62506 14.9261 10.1319 -2.63963 15.4618 
11.2595 -12.4956 13.3063 11.5842 -14.0374 13.1045 10.1234 -0.27373 16.2918 
10.1575 -1.4107 15.9944 11.7508 -14.8864 13.04 10.7872 -9.59974 14.0351 
10.5341 -7.52126 14.4667 10.3582 -5.42746 14.9553 10.2395 -3.40574 15.4753 
11.1202 -11.4675 13.7079 11.894 -15.7814 12.9611 11.4746 -13.1178 13.4695 
10.2657 -2.22614 16.0118 10.7043 -8.38117 14.5189 10.3605 -4.20958 15.4908 
10.5017 -6.27078 14.9864 10.9909 -10.3798 14.1343 11.3441 -12.1623 13.8451 
10.2494 -0.531925 16.5799 11.7134 -13.9537 13.549 10.2601 0.468044 16.9531 
10.3799 -3.04825 16.0186 11.911 -14.8809 13.5075 10.493 -5.04336 15.5122 
10.6559 -7.13113 15.0268 10.8889 -9.21443 14.5922 10.3258 -1.22587 16.5578 
11.209 -11.1399 14.2443 12.0647 -15.8958 13.3891 11.59 -12.9739 13.9354 
10.5041 -3.87597 16.0325 10.4222 -1.99264 16.5491 10.6349 -5.89261 15.5447 
10.8223 -7.98919 15.0814 11.0901 -10.0299 14.6791 11.4475 -11.9498 14.3323 
11.8363 -13.8493 13.9883 10.39 -0.0566112 17.158 10.3868 1.13266 17.548 
10.5338 -2.79098 16.5497 12.0501 -14.7724 13.9755 10.6369 -4.70356 16.0617 
10.7869 -6.74911 15.5892 11.0032 -8.84203 15.1485 10.4732 -0.90206 17.0994 
12.2196 -15.9539 13.7993 11.3098 -10.8574 14.7578 11.6929 -12.7735 14.4017 
10.5024 0.82229 17.7821 10.6575 -3.58087 16.5759 10.5731 -1.73148 17.071 
10.7774 -5.53932 16.1025 10.9509 -7.61108 15.644 11.2007 -9.69709 15.2167 
11.9297 -13.5876 14.4554 11.5413 -11.6649 14.8312 10.5554 0.0854203 17.6829 
12.232 -15.1271 14.2785 10.5339 1.89036 18.2267 10.6892 -2.5 17.0908 
10.7886 -4.38243 16.6145 10.9276 -6.38606 16.1519 11.1281 -8.48028 15.7024 
11.7725 -12.4297 14.9022 10.6324 -0.743712 17.6047 11.4128 -10.5263 15.2869 
12.133 -14.2007 14.5911 12.394 -15.9685 14.2852 10.6458 1.3425 18.3674 
10.8134 -3.27055 17.1259 10.9276 -5.19954 16.6623 10.7358 -1.47021 17.616 
11.0891 -7.24548 16.2057 11.9883 -13.0851 15.0048 11.319 -9.3358 15.7656 
11.635 -11.308 15.3625 10.6974 0.314376 18.1629 12.3672 -14.9378 14.7744 
10.6744 2.59743 18.8644 10.9442 -4.05681 17.1708 10.8507 -2.20153 17.6439 
11.0759 -6.03286 16.7149 12.2036 -13.7571 15.1057 11.2619 -8.10652 16.2636 
11.5238 -10.1542 15.8371 11.8583 -12.0143 15.4586 10.7915 -0.422763 18.1585 
12.5533 -15.9365 14.7527 10.7794 1.26013 18.717 10.7972 2.27175 19.107 
10.9735 -2.9541 17.6816 11.0821 -4.86088 17.2224 11.2346 -6.87774 16.7707 
10.8973 -1.13561 18.1759 11.4475 -8.95096 16.3285 12.0839 -12.7045 15.5574 
11.7407 -10.9155 15.9246 12.3943 -14.2538 15.2891 10.8654 0.596914 18.7253 
12.5616 -15.069 15.2447 10.8344 3.36942 19.5768 11.103 -3.72881 17.7284 
11.2292 -5.68027 17.2783 11.0121 -1.86441 18.2025 11.4043 -7.72285 16.8318 
11.6476 -9.76008 16.4064 11.9672 -11.6452 16.0195 12.2991 -13.2947 15.7058 
10.9579 -0.0762782 18.7308 12.724 -15.8558 15.2807 10.9247 1.78051 19.2979 
11.2404 -4.52351 17.7822 11.1343 -2.61708 18.2388 11.3862 -6.5092 17.3383 
11.5866 -8.55612 16.902 10.9597 2.90733 19.7761 11.0615 -0.775303 18.7417 
12.5253 -14.0644 15.7825 11.8633 -10.5385 16.4933 12.194 -12.3104 16.1425 
11.0174 1.09091 19.3092 12.7123 -14.8825 15.7845 10.9953 4.08668 20.267 
11.264 -3.39421 18.2847 11.3869 -5.33169 17.8417 11.1749 -1.50654 18.7615 
11.5541 -7.34059 17.4046 11.7845 -9.37328 16.9807 12.0895 -11.2695 16.5973 
11.1135 0.380134 19.3029 12.4301 -13.0575 16.2329 11.0749 2.30799 19.889 
12.8817 -15.7364 15.8013 11.4018 -4.18733 18.3406 11.2971 -2.27232 18.792 
11.543 -6.14875 17.9064 12.6573 -13.8542 16.2931 11.7351 -8.17179 17.4773 
11.2197 -0.354296 19.3018 11.1199 3.52298 20.4249 11.9985 -10.1613 17.0699 
12.3263 -12.0316 16.6861 11.1693 1.58648 19.8843 12.8558 -14.7006 16.3078 
11.1632 4.75609 20.9443 11.4277 -3.05769 18.8377 11.5484 -4.99126 18.4035 
11.3356 -1.12892 19.3089 11.71 -6.97343 17.9761 11.2683 0.836351 19.8615 
11.9314 -8.99469 17.5565 12.5635 -12.8211 16.7577 12.2273 -10.9558 17.1518 
11.2274 2.83908 20.4792 13.0292 -15.5813 16.3222 11.4607 -1.91855 19.3377 
11.5665 -3.85578 18.8955 11.3783 0.0354969 19.8384 11.704 -5.80395 18.4715 
12.7906 -13.6448 16.8064 11.8901 -7.80356 18.0499 11.3223 2.06477 20.4461 
12.1445 -9.82183 17.6318 11.2853 4.10926 21.0619 12.4634 -11.7603 17.2231 
12.993 -14.5031 16.8291 11.4993 -0.764378 19.8455 11.5939 -2.7191 19.3852 
11.4253 1.20413 20.3815 11.7132 -4.66246 18.9612 11.3408 5.38029 21.6073 
11.8705 -6.62524 18.5426 12.0852 -8.64518 18.1207 12.6982 -12.5799 17.2818 
11.384 3.32929 21.0517 12.371 -10.6509 17.6989 13.1677 -15.3925 16.8457 
11.4779 2.35175 20.9311 11.5426 0.392312 20.3654 11.6281 -1.56894 19.8776 
11.7341 -3.5285 19.4456 12.9226 -13.418 17.3261 11.8687 -5.47556 19.0311 
12.0497 -7.46063 18.6121 12.2958 -9.49325 18.185 12.6034 -11.4835 17.758 
11.4591 4.6189 21.6715 13.1244 -14.2788 17.3561 11.5362 3.44788 21.4659 
11.5921 1.53154 20.8986 11.668 -0.408922 20.3793 11.7635 -2.38282 19.9287 
11.8813 -4.34337 19.514 12.0343 -6.29806 19.1004 12.8333 -12.321 17.8099 
11.5252 5.95663 22.2374 12.2428 -8.30977 18.6755 12.5183 -10.3425 18.2419 
13.2977 -15.172 17.3723 11.6105 4.42675 21.9749 11.65 2.6428 21.4417 
11.7143 0.745203 20.8968 11.7993 -1.21893 20.4158 13.0526 -13.1665 17.8543 
11.9048 -3.20486 19.9924 12.036 -5.1609 19.5842 12.2119 -7.13288 19.1653 
12.7451 -11.1914 18.2944 12.4502 -9.16604 18.7322 11.6567 5.47346 22.4097 
13.2513 -14.0248 17.8923 11.7687 1.88087 21.4325 11.7239 3.71561 21.9942 
11.8413 -0.0470191 20.9153 11.9359 -2.04299 20.4701 12.0516 -4.02962 20.0626 
12.2001 -5.98261 19.6516 12.9685 -12.0396 18.3445 12.4027 -7.98003 19.2234 
12.6679 -10.0243 18.7837 11.7383 6.56158 22.9002 13.4194 -14.9237 17.8995 
11.7955 4.85842 22.5348 11.8913 1.11622 21.4352 11.8363 2.99305 21.9869 
11.9732 -0.858712 20.9537 13.1812 -12.888 18.3927 12.0775 -2.87712 20.537 
12.2049 -4.8512 20.1332 12.3758 -6.81191 19.7127 12.8879 -10.8817 18.8335 
12.6065 -8.83537 19.2757 11.8662 5.96564 23.0189 13.3745 -13.7393 18.4412 
11.9105 4.14053 22.5489 11.9526 2.25985 21.9778 12.0179 0.331215 21.4532 
12.1101 -1.69141 21.0103 12.2233 -3.71154 20.609 12.3673 -5.67067 20.1989 
13.1038 -11.7361 18.8853 12.5639 -7.65102 19.7674 12.8182 -9.69472 19.3245 
13.532 -14.6522 18.4221 11.946 7.11286 23.4884 11.9903 5.29437 23.0855 
12.023 3.41144 22.5357 12.073 1.50687 21.9763 13.3088 -12.5844 18.9411 
12.1495 -0.481603 21.4915 12.2511 -2.53648 21.0796 12.3748 -4.5377 20.6802 
12.5408 -6.49162 20.2578 13.0307 -10.555 19.3749 12.7629 -8.49842 19.8168 
12.0709 6.45293 23.5759 13.4951 -13.4231 19.0057 12.1025 4.57098 23.0892 
12.1379 2.67388 22.52 12.1979 0.726949 21.9912 12.2858 -1.32116 21.5489 
12.3954 -3.38058 21.1541 12.5352 -5.35485 20.7452 13.2378 -11.4119 19.4307 
12.7255 -7.31878 20.3095 12.9673 -9.35117 19.8648 13.6337 -14.365 18.9293 
12.1483 7.62576 24.0151 12.1876 5.74615 23.614 12.2132 3.83683 23.0709 
12.2565 1.91979 22.5129 12.3281 -0.0855849 22.0273 13.4341 -12.2591 19.4973 
12.4254 -2.17541 21.6205 12.5452 -4.21203 21.2263 12.706 -6.16683 20.8019 
13.1703 -10.2062 19.9169 12.9181 -8.15181 20.3571 13.7227 -14.0726 19.4066 
13.1136 -8.9902 20.4055 12.886 -6.97876 20.8518 12.7033 -5.02811 21.2916 
12.568 -3.02873 21.6977 12.2969 5.01125 23.6094 12.3261 3.09581 23.0506 
12.4625 -0.928403 22.0849 12.3798 1.14103 22.5238 12.272 6.93102 24.0877 
13.3665 -11.0553 19.9785 13.6137 -13.0825 19.5872 13.0711 -7.79252 20.8986 
13.3055 -9.83047 20.4605 12.8706 -5.83119 21.3474 12.7155 -3.86703 21.7723 
12.5998 -1.78853 22.1583 13.5511 -11.8851 20.059 12.5078 0.33024 22.558 
12.4428 2.34236 23.0406 12.4058 4.27055 23.5887 12.3849 6.20378 24.1133 
12.3455 8.10598 24.4913 13.8061 -13.7551 19.8876 13.2563 -8.6103 20.9482 
13.0449 -6.62685 21.3963 13.4889 -10.66 20.5306 12.8708 -4.68386 21.8387 
12.7403 -2.65049 22.2384 12.6393 -0.510639 22.6155 12.5635 1.56718 23.0492 
12.5172 3.52668 23.5682 12.4926 5.45951 24.1068 13.7198 -12.6616 20.1812 
12.4703 7.39959 24.5608 13.2215 -7.41947 21.4432 13.4361 -9.42714 21.008 
13.034 -5.47941 21.8953 12.8857 -3.49638 22.3168 12.7734 -1.37458 22.69 
[...]
POINT_DATA 724
VECTORS velocity double
0.901576 -1.42624 1.44105 1.07723 -0.957099 1.5389 0.70228 -1.82428 1.3435 
1.21535 -0.465918 1.60429 0.552743 -2.10582 1.31843 0.735008 -1.75748 1.2804 
1.31832 0.0128426 1.62996 0.481983 -2.36829 1.39402 0.877192 -1.45274 1.33161 
0.580607 -2.02674 1.21347 1.00363 -1.10363 1.38303 1.12602 -0.688019 1.44158 
1.38061 0.403127 1.61532 0.483717 -2.23287 1.23463 0.506511 -2.67888 1.56262 
0.66029 -1.86711 1.1437 1.18197 -0.407135 1.42359 0.786307 -1.59712 1.15797 
0.459603 -2.44957 1.34205 0.506738 -2.11967 1.08984 1.41206 0.718298 1.56628 
0.620127 -3.10183 1.80059 0.922887 -1.21775 1.19966 1.24439 -0.0571591 1.41027 
0.520351 -2.75059 1.54215 0.43401 -2.3059 1.14886 0.564687 -1.99094 0.992194 
1.00451 -0.882343 1.18464 1.41623 0.955796 1.48648 0.665359 -1.78217 0.968784 
0.764767 -3.56508 2.0258 0.458025 -2.54068 1.32637 0.431872 -2.19683 0.972615 
1.28154 0.250376 1.36607 0.596913 -2.98938 1.65933 0.75941 -1.52373 0.958781 
1.07475 -0.521476 1.16272 0.463729 -2.10034 0.842886 0.401742 -2.36034 1.09272 
0.93857 -4.15092 2.26339 1.39635 1.12521 1.37691 1.3042 0.54726 1.30379 
0.833769 -1.23661 0.931375 0.75029 -3.46629 1.91263 0.527114 -1.96765 0.771388 
0.485028 -2.64224 1.35538 0.369766 -2.24663 0.880674 1.13736 -0.126828 1.13287 
0.596906 -1.78122 0.723423 0.625367 -3.04323 1.62874 0.393083 -2.40201 1.0713 
0.369849 -2.1765 0.712456 0.911801 -0.878395 0.912866 1.36263 1.21892 1.26301 
0.925241 -4.06304 2.16538 1.121 -4.83636 2.49793 1.24286 0.492258 1.15607 
0.400727 -2.09869 0.595196 0.669007 -1.52654 0.686177 0.503989 -2.68392 1.33395 
0.328724 -2.26666 0.81981 1.01576 -0.381771 0.928601 0.803189 -3.60544 1.91326 
1.25285 0.778828 1.08566 0.450217 -1.96937 0.514235 0.296556 -2.20613 0.612004 
0.394076 -2.4174 1.04398 0.761476 -1.15735 0.679094 0.671329 -3.15495 1.6344 
1.05207 -4.54212 2.31502 1.27273 -5.46812 2.69105 1.31051 1.27405 1.12033 
1.07296 -0.0031264 0.909831 0.296699 -2.16658 0.453837 0.518783 -1.74995 0.465896 
0.305571 -2.2595 0.774721 0.536034 -2.75012 1.33634 0.90059 -3.94711 2.01617 
0.837123 -0.776726 0.666582 1.10513 0.323016 0.867865 1.39247 -5.99931 2.84958 
1.14819 -4.95271 2.42334 1.1998 0.857188 0.933523 0.325078 -2.08811 0.342028 
0.245598 -2.1952 0.540461 0.408599 -2.43756 1.03723 0.73644 -3.35656 1.6892 
0.593551 -1.45186 0.438937 1.24629 1.28643 0.96632 0.903933 -0.377344 0.652173 
0.957269 -4.18497 2.05794 0.217699 -2.17796 0.351466 0.577198 -2.85383 1.36104 
0.299053 -2.24215 0.753504 0.374779 -1.93026 0.27019 0.674308 -1.07654 0.428316 
1.3063 -5.65934 2.66595 1.00966 0.193491 0.689518 1.50091 -6.48402 3.01018 
0.773505 -3.50264 1.70118 1.11642 0.781233 0.761641 0.43057 -2.47231 1.0437 
0.215566 -2.15826 0.500777 0.220781 -2.14475 0.211105 1.14189 -4.97918 2.35802 
0.444906 -1.66771 0.233958 1.17911 1.26706 0.82027 0.788198 -0.548601 0.461219 
0.601942 -2.93833 1.36008 0.960903 -4.25576 2.015 0.304022 -2.22872 0.74959 
0.162622 -2.14552 0.289863 0.253887 -2.03791 0.118027 0.546214 -1.26036 0.241013 
0.910559 0.0571239 0.519582 1.35163 -5.90534 2.72282 1.57384 -6.78034 3.14704 
0.780191 -3.57953 1.66874 1.02127 0.64998 0.59214 0.447666 -2.51351 1.04262 
0.202416 -2.11219 0.487521 0.142327 -2.14208 0.125886 1.15402 -5.10765 2.34972 
1.11229 1.22862 0.687307 0.32098 -1.80785 0.0743821 0.665294 -0.740718 0.281975 
1.46711 -6.39806 2.94866 0.612591 -3.01584 1.34232 0.959299 -4.33734 1.98069 
0.312791 -2.22902 0.751851 0.129168 -2.08665 0.263635 0.157807 -2.08015 0.0130203 
0.783291 -0.180263 0.339672 0.414138 -1.448 0.0750113 1.30667 -5.79238 2.63441 
0.995237 0.802963 0.514049 1.63113 -6.94298 3.31105 0.782463 -3.6798 1.64315 
0.458989 -2.57204 1.03773 0.200045 -2.07449 0.491564 0.0881417 -2.09572 0.0837871 
0.518645 -1.00079 0.105352 1.11702 -5.05407 2.26889 0.207466 -1.90781 -0.046791 
0.843051 0.219812 0.353425 1.03104 1.16551 0.541148 1.48583 -6.47008 3.03049 
0.617708 -3.11796 1.32747 0.321971 -2.25558 0.758791 0.9423 -4.39165 1.93452 
0.112644 -2.02218 0.265857 0.605022 -0.568363 0.135531 0.0826455 -2.06996 -0.0449455 
0.282181 -1.61714 -0.0619875 1.27829 -5.7439 2.5972 0.890064 0.641757 0.358898 
1.66594 -6.94923 3.49291 0.466269 -2.66232 1.03582 0.774287 -3.78043 1.61444 
0.204267 -2.06253 0.508856 0.689087 -0.115457 0.17391 0.0549609 -2.0239 0.0812095 
0.110899 -1.95303 -0.121756 0.364467 -1.25118 -0.0503768 1.09978 -5.09677 2.24642 
0.951145 1.09223 0.414107 1.39978 -6.18625 2.89666 1.55489 -6.61735 3.29899 
0.615169 -3.23862 1.31292 0.330407 -2.32111 0.77144 0.109042 -1.97349 0.291432 
0.928726 -4.48025 1.91499 0.0300734 -2.01551 -0.0569099 0.45351 -0.825541 -0.0191037 
0.164324 -1.72809 -0.154256 0.723705 0.195812 0.176939 1.23847 -5.65969 2.56497 
0.817878 0.662632 0.252035 1.69413 -6.85285 3.74809 0.468333 -2.78565 1.03612 
0.212282 -2.09257 0.536552 0.763998 -3.90202 1.59965 0.0398105 -1.94975 0.110702 
0.0373275 -1.9388 -0.147167 0.236699 -1.4033 -0.15275 0.51991 -0.43596 0.00627172 
1.07502 -5.11114 2.23445 0.859063 0.999719 0.28848 1.4059 -6.18162 3.00945 
0.336284 -2.43115 0.787823 0.608765 -3.38349 1.30644 0.114063 -1.96207 0.332739 
-0.000671179 -1.93693 -0.0298636 1.56701 -6.53853 3.5001 0.9107 -4.55689 1.9084 
0.615641 0.0585592 0.0637427 0.0734571 -1.76124 -0.194012 0.311001 -1.02844 -0.132202 
1.23865 -5.68845 2.64752 0.708204 0.52528 0.131998 1.72236 -6.72882 4.05141 
0.46617 -2.94149 1.04098 0.220906 -2.17475 0.56987 0.750043 -4.02356 1.59594 
0.0380133 -1.89992 0.161399 -0.0110319 -1.87933 -0.129079 0.129622 -1.48615 -0.204901 
1.06933 -5.1694 2.28762 0.406071 -0.564655 -0.0867803 1.40999 -6.13947 3.15888 
0.766605 0.902039 0.184276 0.339004 -2.58561 0.807548 0.597903 -3.53646 1.30647 
0.123246 -2.00427 0.381836 0.507496 -0.067807 -0.0259261 -0.0135742 -1.86304 0.0235015 
0.900669 -4.64507 1.93916 1.58432 -6.45679 3.74878 0.00742352 -1.737 -0.187227 
0.208916 -1.10834 -0.186288 1.23825 -5.68374 2.76123 0.604276 0.408418 0.0419158 
1.75762 -6.62647 4.38152 0.459957 -3.11956 1.05043 0.228125 -2.31166 0.605973 
0.736147 -4.1379 1.60916 0.0442651 -1.89696 0.222405 1.0628 -5.19432 2.36452 
-0.0381635 -1.8026 -0.07898 0.304249 -0.654708 -0.144171 0.0541257 -1.48966 -0.210186 
1.41838 -6.09378 3.34888 0.672638 0.800497 0.0997934 0.584942 -3.68775 1.31627 
0.338431 -2.77651 0.830444 0.884375 -4.68614 1.97515 0.133317 -2.10698 0.433467 
0.406499 -0.166338 -0.0865967 -0.0140905 -1.82074 0.0912903 1.23762 -5.66053 2.89886 
-0.0340135 -1.67531 -0.147473 1.60679 -6.3927 4.02008 0.125477 -1.13946 -0.202119 
0.50329 0.302672 -0.0232864 0.717847 -4.21952 1.6286 0.451116 -3.30782 1.06623 
1.04286 -5.16109 2.4256 0.233172 -2.49764 0.643971 1.79672 -6.55685 4.68991 
0.0545786 -1.95338 0.286848 -0.0492534 -1.73657 -0.0122772 0.214625 -0.710791 -0.169682 
1.42594 -6.0505 3.54622 -0.000838072 -1.45432 -0.182608 0.577263 0.69709 0.0342984 
1.20828 -5.57011 2.9601 0.861394 -4.6876 2.01185 0.568911 -3.81992 1.33246 
0.335476 -2.99158 0.857736 0.311561 -0.24596 -0.121336 0.142927 -2.26791 0.486018 
-0.00727399 -1.82744 0.163166 -0.0579821 -1.60577 -0.0870393 0.0581633 -1.13625 -0.187702 
1.62296 -6.33965 4.25125 0.404538 0.204566 -0.0663653 1.37492 -5.91419 3.54075 
1.01472 -5.10336 2.47871 0.696472 -4.2711 1.65473 0.440004 -3.49044 1.08779 
0.236548 -2.72148 0.684912 0.0664742 -2.07062 0.350996 0.136123 -0.741766 -0.168553 
1.82837 -6.50829 4.914 -0.0495571 -1.70249 0.0617909 -0.0390661 -1.40025 -0.132642 
0.481573 0.594371 -0.0130084 1.52222 -6.15374 4.07006 1.17545 -5.48506 3.01973 
0.836461 -4.67261 2.05646 0.551282 -3.92782 1.35603 0.223458 -0.309309 -0.13291 
0.330915 -3.21541 0.890114 0.151944 -2.47747 0.539919 0.00398326 -1.89091 0.235093 
0.00523524 -1.11144 -0.15088 -0.0689183 -1.54978 -0.0161357 1.69483 -6.36161 4.61162 
0.309294 0.115172 -0.0891347 0.988607 -5.05771 2.54511 1.33592 -5.81623 3.58753 
0.674805 -4.30202 1.69068 0.427962 -3.656 1.11603 0.239139 -2.96813 0.730217 
0.0793919 -2.24386 0.415185 0.0691029 -0.752963 -0.146093 -0.0425768 -1.71416 0.136967 
-0.0634789 -1.34487 -0.0697556 1.83965 -6.45746 5.01068 0.38776 0.495711 -0.0433189 
1.51865 -6.1141 4.18806 0.813371 -4.65858 2.11317 1.14867 -5.43254 3.09646 
0.533594 -4.00948 1.38762 0.143877 -0.35686 -0.124688 0.325956 -3.43255 0.928567 
0.161078 -2.72285 0.597058 0.018133 -2.01206 0.305723 -0.0342456 -1.07618 -0.0996757 
-0.0701804 -1.52399 0.0574077 1.68616 -6.30231 4.66428 0.219512 0.0361281 -0.0938818 
1.3259 -5.79189 3.69344 0.965325 -5.03245 2.61886 0.654048 -4.31916 1.73533 
0.415742 -3.79356 1.15017 0.241917 -3.2208 0.781147 0.093336 -2.46307 0.480709 
0.0143689 -0.749625 -0.108567 -0.030652 -1.7787 0.209886 -0.0765097 -1.30385 -0.0023972 
0.298857 0.404248 -0.0586725 1.81471 -6.4025 4.92164 1.50374 -6.06495 4.23058 
1.1332 -5.42219 3.18703 0.791243 -4.65146 2.17368 0.0748608 -0.389352 -0.10125 
0.515786 -4.06321 1.42408 0.320978 -3.62589 0.971984 0.17087 -2.98724 0.658776 
0.0343833 -2.18578 0.375466 -0.0614702 -1.04228 -0.0420907 -0.0643467 -1.54038 0.128493 
1.65809 -6.23381 4.59363 0.137745 -0.0306805 -0.0837093 1.30878 -5.76255 3.74339 
0.945811 -5.03216 2.69173 0.632693 -4.32709 1.7808 0.402742 -3.89314 1.18625 
0.244958 -3.45921 0.836812 0.108412 -2.71367 0.5491 -0.0279414 -0.739138 -0.0630825 
-0.0152284 -1.89683 0.2797 -0.0804769 -1.29117 0.0632569 0.218423 0.322592 -0.0621121 
1.75163 -6.34535 4.66406 1.4766 -6.0011 4.18692 1.1125 -5.41197 3.23577 
0.769006 -4.656 2.22802 0.496175 -4.0899 1.45807 0.0179208 -0.409661 -0.0685778 
0.31499 -3.77824 1.01606 0.181302 -3.24998 0.725011 0.0523652 -2.40096 0.445716 
-0.0781412 -1.02348 0.0151796 -0.0532463 -1.60581 0.195078 0.149479 0.252082 -0.0575931 
-0.0772639 -1.31761 0.123933 0.00290833 -2.06366 0.347744 0.124512 -2.97655 0.621288 
0.247207 -3.66145 0.893467 1.28204 -5.71628 3.72372 0.921411 -5.03564 2.73226 
0.386987 -3.94906 1.21691 0.608932 -4.33215 1.81728 1.60479 -6.15381 4.39457 
-0.0589848 -0.734628 -0.0161408 0.0668107 -0.0830173 -0.0630711 -0.0380554 -1.72157 0.257837 
-0.085862 -1.03159 0.067972 0.071884 -2.64236 0.518503 0.191439 -3.48782 0.793416 
0.305744 -3.87587 1.05319 -0.0280477 -0.433158 -0.0327201 0.472418 -4.09568 1.48024 
0.741454 -4.66475 2.25604 1.08386 -5.38785 3.22856 1.43237 -5.91709 4.04435 
1.65315 -6.29101 4.26739 0.0876804 0.186629 -0.0480769 -0.0682687 -1.38953 0.179267 
0.0233157 -2.26847 0.41656 -0.0797379 -0.746226 0.027656 0.140966 -3.22927 0.69672 
0.246313 -3.80723 0.943858 0.365765 -3.96355 1.23278 0.578994 -4.33666 1.83036 
0.889549 -5.0308 2.72706 1.2428 -5.64424 3.62448 0.00537451 -0.143274 -0.0377087 
1.52487 -6.06871 4.07623 -0.0195434 -1.88245 0.31935 -0.0859492 -1.07553 0.114778 
0.0924538 -2.88992 0.59503 0.199231 -3.67704 0.858365 0.289923 -3.91368 1.0729 
0.441619 -4.08972 1.47993 -0.0627786 -0.464999 0.00160081 0.706095 -4.67067 2.24532 
1.04532 -5.33769 3.15623 1.36939 -5.8177 3.80366 1.52428 -6.24005 3.76438 
0.0302803 0.12098 -0.0353417 -0.0545002 -1.50756 0.23142 0.0455453 -2.49488 0.488829 
-0.0910165 -0.78106 0.0653179 0.156226 -3.44794 0.772281 0.238736 -3.88376 0.977452 
0.335693 -3.94705 1.22288 0.541275 -4.34284 1.8114 0.848915 -5.00503 2.66772 
1.19013 -5.54641 3.44412 -0.0403252 -0.193093 -0.0140914 1.41858 -5.98554 3.65054 
0.00174824 -2.0768 0.383233 -0.0795882 -1.15906 0.156443 0.113 -3.12084 0.674719 
0.201356 -3.7987 0.910535 0.263706 -3.89884 1.06368 -0.0855711 -0.502576 0.0290983 
0.401178 -4.08036 1.44683 0.996225 -5.25519 3.01538 0.664144 -4.66858 2.19416 
1.28807 -5.71378 3.47278 -0.0191514 0.0565782 -0.0229342 1.3694 -6.18546 3.18193 
-0.0367636 -1.66474 0.284117 0.0688516 -2.72214 0.566184 -0.0940563 -0.841525 0.095723 
0.167508 -3.60988 0.840947 0.220247 -3.89019 0.981603 0.293992 -3.91486 1.1778 
0.494653 -4.3455 1.75213 1.12245 -5.42754 3.18403 0.80467 -4.95634 2.56267 
-0.0733009 -0.24155 0.00338396 1.28484 -5.909 3.12074 0.025191 -2.28683 0.452789 
-0.0679175 -1.27943 0.19617 0.131427 -3.31124 0.753536 0.193412 -3.84319 0.937032 
0.223873 -3.84875 1.01546 -0.0986547 -0.553539 0.0484837 0.349933 -4.07152 1.37429 
0.615491 -4.6437 2.09639 0.947073 -5.15498 2.82327 1.18845 -5.61052 3.06991 
-0.0588426 -0.00666225 -0.0149711 -0.0157362 -1.84773 0.341828 0.0917652 -2.92661 0.647535 
1.19133 -6.1133 2.53855 -0.0903409 -0.931541 0.12193 0.170724 -3.69866 0.891309 
0.186814 -3.8399 0.944218 0.239276 -3.88047 1.0915 0.439647 -4.3352 1.64973 
0.756154 -4.87338 2.40581 1.05776 -5.33714 2.85543 -0.095727 -0.295008 0.0126564 
1.12242 -5.71189 2.61226 -0.0516612 -1.4303 0.239423 0.0497832 -2.49078 0.529545 
0.144314 -3.4401 0.822774 0.170659 -3.81499 0.923661 -0.103711 -0.624083 0.061795 
0.168621 -3.78451 0.921955 0.288114 -4.05965 1.25946 0.561804 -4.58537 1.95344 
0.893663 -5.04364 2.57352 -0.0886169 -0.0704506 -0.0146438 0.00788795 -2.03874 0.408362 
0.993392 -5.3042 2.49453 -0.0807365 -1.0507 0.149546 0.111657 -3.08483 0.727413 
0.160885 -3.70911 0.908575 1.02292 -6.02439 1.95288 0.135779 -3.75583 0.856835 
0.702815 -4.75791 2.19846 0.171769 -3.84968 0.962093 0.377287 -4.29891 1.50403 
-0.109164 -0.359181 0.0145326 -0.03141 -1.59889 0.291623 0.975924 -5.61078 2.07437 
0.0736259 -2.6648 0.611298 0.827756 -4.92737 2.26791 0.147023 -3.49429 0.869035 
-0.101742 -0.717434 0.0741102 0.129296 -3.73284 0.858633 0.501495 -4.48501 1.76298 
0.0981588 -3.72264 0.782045 0.21701 -4.03521 1.10314 -0.109103 -0.138664 -0.0224993 
0.87325 -5.16584 2.04998 0.0327161 -2.21484 0.484245 -0.065802 -1.19206 0.185069 
0.124552 -3.17749 0.794962 0.634784 -4.60836 1.9315 0.133387 -3.65143 0.878353 
0.308254 -4.22587 1.31671 0.0667301 -3.66302 0.717116 0.0934951 -3.82072 0.792698 
0.84905 -5.90092 1.37027 -0.114505 -0.439787 0.0135005 0.724967 -4.75692 1.88613 
-0.00818615 -1.76561 0.355779 0.0934451 -2.78512 0.690087 0.820989 -5.47196 1.5395 
0.430976 -4.34146 1.52276 0.134669 -3.47383 0.876935 -0.0933308 -0.831513 0.0923877 
0.0678523 -3.62454 0.736561 0.139657 -3.98873 0.911735 0.0146633 -3.67159 0.599849 
-0.12079 -0.217956 -0.0346351 0.743229 -5.00904 1.58786 -0.0463315 -1.34061 0.233444 
0.545537 -4.42188 1.60305 0.0561599 -2.35069 0.56466 0.125739 -3.19445 0.835313 
0.0855232 -3.55018 0.791331 0.234255 -4.1123 1.0934 -0.0182315 -3.5807 0.529484 
0.00843259 -3.78789 0.591668 0.677144 -5.73525 0.816765 -0.111942 -0.540396 0.0175842 
0.613226 -4.5757 1.47669 0.0161123 -1.90693 0.430389 0.104651 -2.82986 0.751412 
-0.0793262 -0.954542 0.122401 0.351501 -4.1608 1.23974 0.662712 -5.3049 1.01078 
0.103812 -3.3975 0.834655 -0.0124065 -3.5171 0.55982 0.0613632 -3.91373 0.69699 
-0.07773 -3.6313 0.384427 0.609661 -4.84474 1.1196 -0.123236 -0.318697 -0.0411694 
0.450391 -4.22111 1.24445 -0.0233033 -1.48054 0.297329 0.0730279 -2.40744 0.633228 
0.11183 -3.14992 0.836542 0.0172552 -3.43463 0.646059 0.163237 -3.96 0.850384 
-0.11509 -3.51824 0.303523 -0.07835 -3.74077 0.369997 0.511574 -5.5182 0.307518 
-0.101116 -0.660054 0.0370169 0.496536 -4.38754 1.05213 -0.0598218 -1.08435 0.171128 
0.104786 -2.81398 0.786097 0.0340451 -1.95465 0.491985 0.053101 -3.29116 0.736417 
0.279252 -3.9589 0.93912 -0.107905 -3.42917 0.337351 -0.173809 -3.59494 0.147741 
-0.0128628 -3.80084 0.470009 0.501761 -5.10557 0.487129 0.479116 -4.66722 0.674621 
-0.11426 -0.454651 -0.0251824 0.361904 -4.0348 0.85323 0.0826282 -2.40943 0.686336 
0.0807901 -3.06288 0.790075 -0.0691788 -3.32944 0.447826 -0.00972123 -1.48749 0.334976 
-0.218617 -3.47456 0.0519784 0.0988645 -3.77107 0.598167 -0.16099 -3.66791 0.140777 
0.356106 -5.23782 -0.14361 -0.0678536 -0.929904 0.130871 0.383025 -4.27387 0.55778 
0.0915757 -2.74529 0.783643 -0.0166462 -3.18211 0.583105 0.0476252 -1.95632 0.545645 
-0.213864 -3.36756 0.081312 0.209528 -3.74728 0.625344 -0.267966 -3.55016 -0.0971415 
-0.0764675 -3.64521 0.245445 0.364347 -4.73867 0.140043 -0.0944764 -0.609296 0.0246092 
-0.00128351 -1.44607 0.358764 0.0324137 -2.96178 0.693446 0.272795 -3.86332 0.462561 
0.0818921 -2.3441 0.70879 -0.169787 -3.24877 0.206817 -0.323229 -3.44054 -0.211695 
-0.233991 -3.55805 -0.0826649 0.0461061 -3.55379 0.347632 0.234355 -4.93687 -0.471023 
-0.043477 -1.04092 0.201289 0.28157 -4.1814 0.136478 0.0650159 -2.65855 0.742537 
0.0498591 -1.85603 0.559665 -0.103327 -3.08947 0.379649 -0.324318 -3.32827 -0.193366 
-0.354089 -3.48324 -0.33581 0.148912 -3.54702 0.306921 -0.127557 -3.44961 0.0320982 
0.24189 -4.51188 -0.240521 0.0734893 -2.27442 0.709872 -0.0338527 -2.86854 0.544543 
-0.0612472 -0.801648 0.124248 0.192284 -3.75565 0.0595897 -0.279274 -3.19564 -0.0634594 
-0.422264 -3.40169 -0.471285 -0.291736 -3.40514 -0.286081 0.00560339 -1.35693 0.37709 
0.000712037 -3.32701 0.104984 0.126631 -4.5684 -0.730019 0.163232 -4.10272 -0.355456 
0.0563648 -1.84378 0.59969 0.0219306 -2.58121 0.655269 -0.204166 -3.02263 0.133021 
-0.432449 -3.29898 -0.469704 -0.426462 -3.38259 -0.553199 0.0897272 -3.36393 0.00872624 
-0.16286 -3.22181 -0.159682 0.0515658 -2.24224 0.682004 -0.0254484 -0.979847 0.245081 
-0.119353 -2.79766 0.3395 0.106994 -3.58154 -0.272416 -0.390516 -3.16099 -0.344935 
-0.509789 -3.34365 -0.711852 -0.333735 -3.21316 -0.462109 0.0292473 -1.44786 0.471345 
-0.0341021 -3.10193 -0.121889 0.0517198 -4.21177 -0.880858 0.0548947 -1.87692 0.630881 
0.072081 -3.8362 -0.621706 -0.0452131 -2.5255 0.501848 -0.31052 -2.97415 -0.134974 
-0.482055 -3.24312 -0.739359 -0.191471 -2.98293 -0.331617 -0.53217 -3.26494 -0.73288 
0.0328707 -3.18707 -0.283318 0.00575107 -2.21936 0.589677 0.011526 -1.1665 0.386263 
-0.213791 -2.73353 0.102323 -0.0746968 -2.87687 -0.3227 -0.363419 -2.99244 -0.610699 
-0.580703 -3.25423 -0.92114 -0.495966 -3.13141 -0.619025 0.0421462 -1.55072 0.549623 
0.0235286 -3.41925 -0.622138 -0.0104766 -3.79142 -0.969954 0.0315488 -1.89656 0.602061 
-0.120805 -2.44414 0.312507 -0.0232637 -2.95912 -0.481667 -0.21945 -2.73799 -0.484143 
-0.516826 -3.05933 -0.884196 -0.413077 -2.9334 -0.40122 -0.617203 -3.2115 -0.968144 
-0.0465748 -2.11359 0.456572 0.0317428 -1.34619 0.495921 -0.0491275 -3.41129 -0.990276 
-0.0306335 -3.10702 -0.735751 -0.116391 -2.63253 -0.484377 -0.304159 -2.66967 -0.134517 
-0.373483 -2.73593 -0.718257 -0.629475 -3.12281 -1.08495 -0.589526 -3.09421 -0.871558 
0.017735 -1.71602 0.546306 -0.0728159 -2.67388 -0.607038 -0.186955 -2.34197 0.133004 
-0.527125 -2.8318 -0.976249 -0.226503 -2.46677 -0.59431 -0.509875 -2.8987 -0.661479 
-0.680417 -3.12297 -1.15721 -0.0704365 -1.93976 0.372316 -0.0770079 -3.00473 -0.964687 
-0.0704788 -2.76008 -0.78031 0.0100086 -1.50489 0.492079 -0.397557 -2.63119 -0.386851 
-0.653783 -2.95129 -1.19291 -0.361556 -2.4542 -0.774374 -0.133467 -2.36887 -0.611084 
-0.663628 -3.02819 -1.08443 -0.267285 -2.30604 -0.0843944 -0.520912 -2.58719 -1.02233 
-0.214206 -2.19217 -0.654251 -0.717418 -2.98952 -1.28916 -0.0994177 -2.40338 -0.731491 
-0.588898 -2.83917 -0.886689 -0.164027 -1.99081 0.13724 -0.0570611 -1.64856 0.354203 
-0.0954453 -2.5837 -0.898436 -0.349083 -2.19457 -0.801836 -0.651771 -2.73737 -1.24098 
-0.471371 -2.56093 -0.600629 -0.711535 -2.91648 -1.24162 -0.132164 -2.11482 -0.685293 
-0.3345 -2.22007 -0.284239 -0.489428 -2.30559 -1.01052 -0.215953 -1.95398 -0.681837 
-0.106483 -2.21587 -0.81592 -0.724867 -2.80454 -1.3558 -0.188762 -1.84005 0.0395073 
-0.640697 -2.73694 -1.05306 -0.618408 -2.47215 -1.2203 -0.314026 -1.90351 -0.77742 
-0.147314 -1.8534 -0.674806 -0.504716 -2.42558 -0.722632 -0.72882 -2.74835 -1.33289 
-0.115606 -1.90567 -0.733901 -0.353601 -2.05522 -0.375171 -0.429863 -1.98237 -0.936381 
-0.195061 -1.67174 -0.66285 -0.695473 -2.55152 -1.34525 -0.641358 -2.57021 -1.0917 
-0.552996 -2.15306 -1.12975 -0.130962 -1.60344 -0.650607 -0.259173 -1.59065 -0.704385 
-0.519786 -2.2602 -0.807437 -0.706172 -2.56533 -1.30191 -0.6995 -2.45311 -1.34997 
-0.350733 -1.64271 -0.814968 -0.606148 -2.15798 -1.21671 -0.159204 -1.39457 -0.603821 
-0.6426 -2.37876 -1.14846 -0.456157 -1.78477 -0.972264 -0.213156 -1.30158 -0.618601 
-0.677942 -2.31526 -1.29992 -0.307978 -1.37511 -0.729847 -0.603454 -2.0425 -1.20715 
-0.458297 -1.66676 -0.966163 
