# vtk DataFile Version 3.0
vtk output
ASCII
DATASET POLYDATA
POINTS 724 float
10.6993 -11.3855 11.8991 10.9972 -12.0788 11.8317 10.3878 -10.5121 12.0985 
11.2706 -12.6429 11.8513 10.1503 -9.62531 12.4324 10.5952 -10.8953 12.3072 
11.5331 -13.1337 11.9392 10.0058 -8.74799 12.9177 10.8691 -11.5503 12.2577 
10.3742 -10.1442 12.6025 11.1227 -12.0807 12.2667 11.3595 -12.5558 12.2731 
11.7599 -13.5354 12.076 10.2 -9.35425 12.9718 9.97043 -7.94303 13.538 
10.6651 -10.8534 12.6761 11.5616 -12.8769 12.4141 10.9565 -11.5287 12.6657 
10.1079 -8.56869 13.4704 10.4335 -10.0183 13.033 11.9686 -13.8895 12.2555 
10.0394 -7.21631 14.2928 11.2512 -12.1296 12.6849 11.7751 -13.2309 12.5396 
10.0969 -7.80051 14.0773 10.2756 -9.14827 13.4929 10.6982 -10.7163 13.0661 
11.5095 -12.567 12.8222 12.1604 -14.2027 12.4733 10.9767 -11.3854 13.0585 
10.1634 -6.68642 14.9959 10.2098 -8.2701 14.0837 10.4792 -9.81284 13.4915 
11.9777 -13.5512 12.7056 10.2051 -7.36447 14.7262 11.2402 -11.9183 13.116 
11.7536 -12.9598 12.9678 10.7144 -10.5074 13.4827 10.35 -8.87076 14.0305 
10.3357 -6.20189 15.7676 12.3418 -14.4854 12.7337 12.1769 -13.8778 12.8896 
11.4934 -12.3598 13.2403 10.3138 -6.77934 15.4078 10.965 -11.1507 13.4843 
10.3113 -7.93423 14.6677 10.5238 -9.53689 13.9778 11.9971 -13.3499 13.1239 
11.2198 -11.6953 13.5462 10.3749 -7.22396 15.3334 10.4343 -8.55356 14.5796 
10.7289 -10.2273 13.9384 11.7489 -12.7794 13.3696 12.4879 -14.6998 12.9882 
10.4734 -6.26016 16.1513 10.5409 -5.73971 16.5886 12.282 -13.9154 13.1965 
10.9596 -10.8845 13.9311 11.4794 -12.175 13.6503 10.4551 -7.72012 15.2526 
10.5833 -9.22036 14.4935 12.0247 -13.245 13.4666 10.5095 -6.60222 16.0839 
12.4702 -14.2605 13.3808 11.208 -11.4683 13.9779 10.763 -9.91701 14.4261 
10.5518 -8.28543 15.1453 11.7531 -12.6449 13.7489 10.5532 -6.99839 15.9881 
10.6594 -5.89727 16.8657 10.7367 -5.31999 17.3347 12.6407 -14.9033 13.3008 
12.2386 -13.5984 13.5952 10.9737 -10.5983 14.3985 11.4729 -12.0007 14.0539 
10.6732 -8.91806 15.0355 10.6108 -7.46192 15.8694 10.6905 -6.27099 16.7751 
11.9998 -13.0381 13.8748 12.434 -13.9268 13.7539 10.9162 -4.90317 18.0096 
10.8368 -5.5727 17.5187 12.6318 -14.4557 13.7117 11.2117 -11.2297 14.418 
10.8254 -9.60096 14.9442 10.686 -7.99666 15.7362 10.723 -6.7052 16.6326 
11.7344 -12.4589 14.1582 12.7846 -15.0675 13.6433 12.2369 -13.4099 14.0155 
10.8602 -6.02119 17.3751 11.0121 -10.2956 14.8902 10.7693 -7.18166 16.4808 
10.784 -8.60435 15.6034 11.4658 -11.785 14.482 11.997 -12.8814 14.2797 
11.0105 -5.02834 18.232 12.5094 -13.9073 14.0959 11.1155 -4.36175 18.7593 
10.8899 -6.47677 17.2142 12.7406 -14.4846 14.0772 10.8315 -7.71054 16.3275 
10.9116 -9.27035 15.4909 11.2308 -10.9526 14.8873 11.0143 -5.42767 18.0795 
11.7335 -12.2855 14.5708 12.91 -15.181 13.9823 12.2881 -13.3565 14.3714 
10.932 -6.95203 17.0548 11.0296 -5.85414 17.9201 10.9134 -8.29551 16.1851 
11.0741 -9.96381 15.4156 11.4776 -11.5563 14.9251 12.0256 -12.7812 14.6546 
12.5755 -13.8721 14.4359 11.1848 -4.66319 18.853 11.2917 -3.78424 19.427 
11.0573 -6.29565 17.7584 12.8232 -14.4444 14.4449 10.9878 -7.45662 16.9083 
11.0213 -8.93601 16.063 11.2735 -10.652 15.3832 11.1798 -5.17916 18.6384 
13.0201 -15.2525 14.3107 11.7515 -12.1188 14.9799 12.321 -13.2636 14.7316 
11.3664 -3.95367 19.5866 11.0995 -6.74157 17.6193 11.1918 -5.65523 18.4491 
11.0592 -8.00769 16.773 11.1621 -9.62208 15.9691 11.5089 -11.3088 15.3856 
12.5988 -13.7401 14.7985 12.037 -12.6244 15.048 11.345 -4.47551 19.3574 
12.9762 -14.6972 14.6929 11.4915 -3.00784 20.1953 11.2254 -6.08347 18.3123 
11.1517 -7.21668 17.4886 11.1524 -8.61539 16.6508 11.3404 -10.3299 15.9069 
12.3152 -13.0781 15.1241 11.3359 -5.00743 19.1262 11.7694 -11.8955 15.421 
12.8131 -14.1161 14.9252 13.1401 -15.2961 14.7053 11.5402 -3.41249 20.2234 
11.2682 -6.51722 18.1879 11.2166 -7.73559 17.3651 11.3601 -5.43474 18.9928 
11.2744 -9.28005 16.5456 12.5605 -13.4619 15.2281 11.5546 -11.0072 15.8857 
12.0403 -12.4025 15.4837 11.4896 -4.21695 19.8356 13.0478 -14.597 15.0934 
11.6839 -2.19005 20.9444 11.3189 -6.97622 18.0697 11.3954 -5.85296 18.8722 
11.2996 -8.30909 17.2484 12.7998 -13.8627 15.3335 11.4302 -9.97559 16.4687 
11.7967 -11.6109 15.9074 12.3034 -12.8321 15.5766 11.5031 -4.70505 19.6859 
13.2458 -15.3019 15.0915 11.6489 -3.37827 20.5306 11.7635 -2.41831 21.1133 
11.4377 -6.28321 18.7566 11.3803 -7.47313 17.9567 11.4067 -8.93778 17.1442 
11.53 -5.14746 19.5598 11.6218 -10.6547 16.4325 12.5635 -13.2396 15.6795 
12.0539 -12.1261 15.9706 12.9894 -14.1735 15.5032 11.6601 -3.87738 20.4017 
13.1874 -14.7066 15.4893 11.9128 -1.26647 21.8402 11.4873 -6.73637 18.647 
11.4573 -8.01645 17.8501 11.5649 -5.58421 19.4392 11.5439 -9.60331 17.0644 
11.8449 -11.2727 16.4446 12.32 -12.5854 16.0581 12.7956 -13.5889 15.8264 
11.6767 -4.35199 20.2683 13.3545 -15.2717 15.5365 11.8269 -2.78968 21.1876 
11.5472 -7.22136 18.5437 11.6062 -6.02962 19.3248 11.555 -8.60795 17.7554 
11.715 -10.271 17.022 11.9799 -1.67005 21.9302 11.7019 -4.81754 20.1358 
13.0508 -14.0618 15.9195 12.0935 -11.823 16.495 12.5771 -12.9852 16.1806 
11.838 -3.34734 21.0429 13.2672 -14.5974 15.948 12.1535 -0.466874 22.7773 
11.6555 -6.49337 19.2183 11.6215 -7.74334 18.4494 11.7346 -5.28442 20.0076 
11.6788 -9.23871 17.6817 11.9213 -10.9077 17.0202 12.3538 -12.301 16.5835 
11.8513 -3.89091 20.8807 12.8485 -13.4335 16.2832 12.0171 -2.1848 21.888 
13.45 -15.2078 15.9855 11.7156 -6.97954 19.1234 11.7745 -5.76155 19.8868 
11.7141 -8.30536 18.3676 13.1104 -13.9263 16.3643 11.8342 -9.89044 17.6364 
11.8735 -4.42047 20.723 12.2044 -0.998875 22.7768 12.1573 -11.4845 17.0601 
12.6293 -12.7763 16.6729 12.021 -2.79866 21.7002 13.3415 -14.4825 16.4063 
12.4016 0.19048 23.7334 11.824 -6.2478 19.782 11.7893 -7.49303 19.0406 
11.903 -4.95266 20.5708 11.8295 -8.9065 18.3028 12.0284 -3.40774 21.4969 
12.0242 -10.5318 17.6253 12.9063 -13.2614 16.7573 12.4185 -12.0279 17.1171 
12.2183 -1.60913 22.626 13.5342 -15.1116 16.4455 11.9426 -5.47565 20.4427 
11.8847 -6.74775 19.6937 12.044 -4.02584 21.2922 11.8795 -8.0382 18.9711 
13.1723 -13.7785 16.8275 11.9734 -9.53599 18.2595 12.2099 -2.27869 22.3688 
12.2489 -11.1515 17.6382 12.4346 -0.432295 23.6362 12.6934 -12.5493 17.183 
13.4095 -14.3473 16.8767 12.0732 -4.6111 21.1269 11.993 -5.99662 20.3387 
12.2028 -2.99947 22.0746 11.9587 -7.26586 19.6205 12.6401 0.757531 24.6446 
11.9904 -8.61622 18.9157 12.1502 -10.1814 18.2343 12.9694 -13.0682 17.2505 
12.4227 -1.1259 23.3603 12.5011 -11.7383 17.6691 13.6083 -14.984 16.9193 
12.3823 -1.96354 22.9273 12.2189 -3.64668 21.8576 12.1133 -5.1782 20.9953 
12.0548 -6.52252 20.2553 13.2339 -13.6055 17.313 12.0483 -7.80524 19.5612 
12.1266 -9.22684 18.8723 12.3609 -10.8192 18.2271 12.7683 -12.2981 17.7136 
12.6541 0.0170172 24.4339 13.4716 -14.183 17.3665 12.5727 -1.00716 23.8123 
12.3845 -2.64024 22.6541 12.2483 -4.26142 21.6872 12.1641 -5.73923 20.8919 
12.1295 -7.05676 20.1899 12.1568 -8.36937 19.5121 13.0371 -12.8458 17.7667 
12.8525 1.30086 25.4385 12.2922 -9.85945 18.8398 12.5995 -11.4327 18.2373 
13.673 -14.8255 17.4075 12.7583 -0.165916 24.6526 12.5692 -1.67318 23.5155 
12.4026 -3.27264 22.4392 12.2878 -4.86581 21.5519 13.2955 -13.4013 17.823 
12.2264 -6.29937 20.8126 12.219 -7.60035 20.138 12.288 -8.9585 19.471 
12.8539 -12.0205 18.2647 12.4891 -10.4947 18.8207 12.9107 0.798803 25.4231 
13.5297 -13.9862 17.879 12.5783 -2.28745 23.2644 12.7658 -0.774094 24.4107 
12.43 -3.89895 22.2614 12.3379 -5.46837 21.4474 12.3014 -6.85798 20.7528 
12.3263 -8.15507 20.095 13.1111 -12.5924 18.3066 12.4452 -9.56752 19.437 
12.7123 -11.1172 18.8178 13.0602 1.93893 26.1695 13.7299 -14.6379 17.9079 
12.9548 0.214773 25.3088 12.5947 -2.89796 23.0424 12.7708 -1.36044 24.1482 
12.4668 -4.53253 22.1181 13.3594 -13.1645 18.3584 12.3999 -6.06795 21.3703 
12.3909 -7.41177 20.707 12.4545 -8.72283 20.0572 12.9508 -11.7219 18.8329 
12.63 -10.1855 19.413 13.1111 1.30249 26.0805 13.586 -13.7549 18.4177 
12.9656 -0.412367 25.0587 12.7793 -1.93906 23.8933 12.6181 -3.52472 22.8506 
12.5147 -5.17468 22.0094 12.4746 -6.6566 21.3147 12.4978 -7.96142 20.6689 
13.1932 -12.3123 18.8666 12.6056 -9.30411 20.0248 12.8376 -10.8021 19.4028 
13.7798 -14.4245 18.4146 13.235 2.58491 26.7212 13.1437 0.637853 25.9063 
12.9716 -1.00754 24.785 12.7921 -2.5293 23.6564 13.4282 -12.8978 18.9168 
12.6506 -4.17617 22.6954 12.5752 -5.81544 21.9322 12.5639 -7.22625 21.2736 
12.6242 -8.51025 20.6349 13.0586 -11.4114 19.4111 12.7796 -9.89586 19.9996 
13.2898 1.86421 26.6208 13.6434 -13.4895 18.9841 13.1567 -0.0223634 25.6539 
12.9788 -1.58427 24.516 12.8108 -3.1462 23.4489 12.6948 -4.84995 22.5792 
12.6491 -6.43837 21.8796 12.6707 -7.77557 21.2394 13.2838 -12.0123 19.4401 
12.7705 -9.06367 20.6039 12.9716 -10.4938 19.9866 13.8236 -14.1917 18.9156 
13.3875 3.21936 27.1345 13.3227 1.13082 26.4374 13.1643 -0.640763 25.3784 
12.989 -2.16436 24.2647 12.8383 -3.80046 23.2796 13.5031 -12.6074 19.4924 
12.7526 -5.52873 22.5002 12.7384 -7.02877 21.842 12.7956 -8.30959 21.2074 
13.174 -11.0942 19.9917 12.9343 -9.62437 20.5791 13.862 -13.9493 19.3937 
13.1112 -10.1944 20.566 12.9371 -8.83699 21.1776 12.8447 -7.5832 21.8106 
12.8252 -6.18732 22.4497 13.3389 0.420653 26.1918 13.1718 -1.22742 25.1049 
12.8776 -4.49079 23.1543 13.0043 -2.76779 24.0432 13.4523 2.46282 27.0596 
13.3793 -11.6914 20.0197 13.7053 -13.1963 19.5772 13.0913 -9.36557 21.1534 
13.2947 -10.7726 20.571 12.9677 -8.10727 21.7798 12.9139 -6.80338 22.4152 
12.9314 -5.19745 23.0723 13.5785 -12.2791 20.0785 13.0271 -3.41144 23.8617 
13.1816 -1.80347 24.8482 13.349 -0.237048 25.9225 13.4916 1.68509 26.8975 
13.5237 3.82021 27.4412 13.8991 -13.6824 19.8805 13.2538 -9.90274 21.1411 
13.1041 -8.61281 21.75 13.4785 -11.3506 20.6028 13.0194 -7.36873 22.3858 
13.0019 -5.88927 23.0233 13.0608 -4.09924 23.7282 13.1947 -2.39282 24.6199 
13.358 -0.847853 25.6532 13.5138 0.926221 26.6728 13.7618 -12.8373 20.1888 
13.6021 3.07343 27.4107 13.249 -9.11211 21.7261 13.4189 -10.4492 21.1488 
13.14 -7.88897 22.3559 13.0898 -6.53372 22.9928 13.1094 -4.81928 23.6421 
[...]
POINT_DATA 724
VECTORS velocity double
1.37455 -2.04165 1.59361 1.51428 -1.42051 1.67762 1.16835 -2.78302 1.46007 
1.59995 -0.910777 1.71388 0.955236 -3.48477 1.33109 1.2421 -2.58258 1.45277 
1.64674 -0.479222 1.7103 0.771598 -4.15847 1.24831 1.38763 -2.0252 1.52551 
1.05265 -3.23378 1.32981 1.4881 -1.54733 1.56768 1.56114 -1.09746 1.5968 
1.662 -0.147022 1.67562 0.867435 -3.85976 1.23752 0.653095 -4.80575 1.24767 
1.20044 -2.75039 1.35649 1.58626 -0.822164 1.56767 1.3448 -2.18036 1.4077 
0.717258 -4.47069 1.201 0.987367 -3.4776 1.23065 1.65556 0.12334 1.61658 
0.609499 -5.46219 1.34459 1.45465 -1.62443 1.44302 1.60292 -0.510318 1.53471 
0.627129 -5.0846 1.25056 0.791854 -4.16501 1.15917 1.12734 -2.99168 1.24098 
1.50292 -1.22938 1.41979 1.63181 0.339426 1.53747 1.26729 -2.43458 1.27419 
0.628202 -6.00437 1.49429 0.653559 -4.83792 1.18123 0.89943 -3.76315 1.12798 
1.59938 -0.244927 1.4791 0.604681 -5.53495 1.3311 1.36098 -1.95589 1.28319 
1.52656 -0.869285 1.38124 1.0305 -3.28026 1.11776 0.710294 -4.48645 1.10494 
0.687302 -6.53593 1.69283 1.59275 0.511553 1.43894 1.58171 0.0113208 1.4099 
1.41371 -1.54905 1.25942 0.627988 -6.07906 1.50609 1.15805 -2.76663 1.12441 
0.608564 -5.19016 1.21021 0.799163 -4.07284 1.04065 1.53133 -0.516568 1.32946 
1.25266 -2.29048 1.11904 0.600716 -5.78061 1.38362 0.63883 -4.80327 1.09084 
0.914269 -3.60356 0.999109 1.44581 -1.14728 1.22596 1.54878 0.624282 1.34168 
0.691574 -6.59318 1.71663 0.774235 -7.02227 1.91336 1.53595 -0.00900106 1.29858 
1.03459 -3.10252 0.978093 1.31637 -1.8418 1.09749 0.58453 -5.44559 1.24892 
0.701431 -4.37945 0.985032 1.46875 -0.690464 1.19863 0.650877 -6.34597 1.60734 
1.50327 0.246529 1.22256 1.13494 -2.60683 0.959779 0.795405 -3.91481 0.903483 
0.587913 -5.06472 1.10515 1.36302 -1.37399 1.07526 0.610628 -6.0508 1.47727 
0.758508 -6.95562 1.89035 0.863261 -7.38308 2.10098 1.49039 0.713383 1.22309 
1.46226 -0.368104 1.15141 0.905268 -3.41767 0.848993 1.21276 -2.10832 0.940183 
0.620126 -4.64529 0.96476 0.575794 -5.70485 1.32616 0.70087 -6.67469 1.76194 
1.3783 -0.984383 1.03636 1.43879 -0.0930295 1.08948 0.947337 -7.63199 2.24952 
0.82315 -7.2204 2.03259 1.44043 0.346695 1.09596 1.01003 -2.90078 0.812896 
0.685618 -4.18984 0.842308 0.554732 -5.31485 1.15974 0.640214 -6.33217 1.60527 
1.25936 -1.65256 0.911813 1.42346 0.767324 1.09621 1.37437 -0.626594 0.987983 
0.744642 -6.88845 1.87665 0.777262 -3.69975 0.749061 0.585338 -5.95283 1.4321 
0.557219 -4.88838 0.987846 1.09166 -2.39423 0.783096 1.28205 -1.22131 0.876021 
0.925053 -7.54033 2.21389 1.3717 -0.163524 0.960304 1.04277 -7.79633 2.38574 
0.670285 -6.52575 1.70844 1.37003 0.316201 0.962384 0.541702 -5.54029 1.24448 
0.590987 -4.43391 0.826155 0.875067 -3.18636 0.684586 0.851045 -7.29556 2.08935 
1.14901 -1.89739 0.75491 1.35554 0.788415 0.974997 1.29747 -0.735053 0.851205 
0.601991 -6.1352 1.52794 0.772595 -6.99272 1.94402 0.516756 -5.103 1.04921 
0.655518 -3.95282 0.690585 0.963182 -2.6551 0.6409 1.19056 -1.37791 0.733824 
1.3001 -0.24197 0.833863 0.985721 -7.64177 2.3003 1.1302 -7.80554 2.48442 
0.694605 -6.64652 1.78286 1.29581 0.237806 0.831593 0.542769 -5.72186 1.33644 
0.518209 -4.64534 0.856656 0.740557 -3.43791 0.589586 0.891024 -7.3863 2.1552 
1.2887 0.786496 0.862466 1.03606 -2.10464 0.613385 1.21251 -0.873136 0.716794 
1.0956 -7.71939 2.43243 0.62156 -6.27604 1.61287 0.801959 -7.08082 2.00302 
0.496459 -5.28398 1.13348 0.551298 -4.16411 0.681322 0.831159 -2.88616 0.523457 
1.21741 -0.404719 0.702513 1.08458 -1.57555 0.594177 1.00664 -7.60589 2.31658 
1.23683 0.393679 0.74573 1.23691 -7.61607 2.58811 0.722326 -6.75812 1.85253 
0.552882 -5.87419 1.42842 0.469799 -4.8225 0.923991 0.614597 -3.64939 0.539114 
1.10914 -1.09471 0.57766 0.910726 -7.39045 2.17799 0.907334 -2.33243 0.484 
1.19367 -0.0784836 0.665188 1.20764 0.762716 0.734676 1.16824 -7.60173 2.50117 
0.644955 -6.40294 1.69134 0.491493 -5.44024 1.22829 0.82957 -7.14012 2.04761 
0.470775 -4.33759 0.719992 1.10799 -0.704499 0.553086 0.692845 -3.10859 0.440278 
0.958538 -1.8121 0.458419 1.0364 -7.56329 2.3406 1.15199 0.282718 0.616792 
1.35514 -7.2756 2.71679 0.569274 -6.01085 1.51517 0.749676 -6.84822 1.90835 
0.443062 -4.97653 1.01508 1.09659 -0.328156 0.530019 0.502929 -3.8318 0.541848 
0.764663 -2.56665 0.378835 0.981621 -1.35591 0.434851 0.94735 -7.40539 2.21699 
1.12786 0.723148 0.618346 1.16254 -7.50212 2.48192 1.31767 -7.28163 2.66828 
0.669116 -6.51231 1.75587 0.497293 -5.58156 1.32248 0.415454 -4.48986 0.798736 
0.863493 -7.19308 2.09111 0.557835 -3.30902 0.406437 0.988329 -0.930946 0.414051 
0.814929 -2.05589 0.339617 1.06133 -0.0692906 0.487491 1.07425 -7.47244 2.36907 
1.06188 0.327676 0.502278 1.52674 -6.91645 2.97099 0.588272 -6.13261 1.58832 
0.433334 -5.11864 1.11499 0.779481 -6.92808 1.95553 0.414934 -3.98868 0.597437 
0.617013 -2.78244 0.315194 0.845001 -1.57559 0.312329 0.971319 -0.587092 0.384004 
0.987452 -7.3766 2.25281 1.03559 0.66432 0.496148 1.24972 -7.30515 2.57894 
0.508866 -5.71043 1.4049 0.694191 -6.61105 1.80741 0.383749 -4.63052 0.899732 
0.440021 -3.47692 0.430158 1.46064 -7.0256 2.87742 0.899923 -7.2144 2.12859 
0.963185 -0.171309 0.374149 0.667075 -2.26307 0.257009 0.851328 -1.15419 0.287279 
1.14717 -7.34311 2.44546 0.960368 0.228745 0.382192 1.73372 -6.84605 3.37344 
0.607827 -6.24287 1.64506 0.43437 -5.2513 1.20754 0.810507 -6.98614 1.99348 
0.355079 -4.127 0.68999 0.480789 -2.9547 0.30587 0.698226 -1.77754 0.219248 
1.04611 -7.31345 2.31215 0.855919 -0.7105 0.273962 1.36001 -7.1181 2.73292 
0.94254 0.595513 0.386821 0.522291 -5.82876 1.46926 0.718703 -6.69217 1.84521 
0.369565 -4.76308 1.00108 0.856998 -0.275459 0.271083 0.350678 -3.6121 0.501761 
0.946221 -7.20701 2.17547 1.63187 -6.9808 3.19325 0.52242 -2.43599 0.222539 
0.721399 -1.29167 0.196476 1.23596 -7.19148 2.55854 0.857905 0.140345 0.279983 
1.93315 -7.07514 3.85322 0.626291 -6.33969 1.6849 0.440238 -5.37471 1.28179 
0.84462 -7.01882 2.02929 0.320024 -4.25367 0.793906 1.11503 -7.21197 2.39299 
0.367276 -3.08969 0.349823 0.736809 -0.819904 0.18586 0.560894 -1.91466 0.169102 
1.49415 -7.0528 2.96246 0.847388 0.518792 0.290208 0.743714 -6.75458 1.87501 
0.534864 -5.93587 1.51364 0.994343 -7.15797 2.22751 0.365209 -4.88771 1.08609 
0.746856 -0.368365 0.185799 0.290784 -3.73055 0.598764 1.34023 -7.09813 2.72053 
0.398054 -2.55561 0.237069 1.79971 -7.17398 3.56674 0.592333 -1.4047 0.13819 
0.752978 0.0539544 0.194769 0.880007 -7.01659 2.06586 0.643755 -6.42284 1.71205 
1.18204 -7.12334 2.48729 0.446693 -5.48835 1.33349 2.06335 -7.37537 4.26717 
0.301731 -4.37521 0.888046 0.284134 -3.1945 0.427549 0.616239 -0.916403 0.123625 
1.62735 -7.15982 3.23227 0.433925 -2.02137 0.161297 0.749758 0.436082 0.207576 
1.41491 -7.11095 2.86073 1.04557 -7.09218 2.29322 0.769137 -6.79177 1.90169 
0.545789 -6.03243 1.54115 0.633516 -0.457538 0.121168 0.364773 -5.00538 1.1478 
0.254576 -3.84221 0.695231 0.297343 -2.65168 0.291007 0.467907 -1.50074 0.114905 
1.91262 -7.46158 3.88172 0.645088 -0.0342677 0.127695 1.66264 -7.29911 3.3351 
1.251 -7.08685 2.60325 0.919125 -6.98973 2.11287 0.660577 -6.48928 1.73201 
0.451941 -5.59366 1.36481 0.292559 -4.49334 0.960521 0.49645 -1.00621 0.0899361 
2.10229 -7.50556 4.53085 0.227853 -3.29611 0.51841 0.323012 -2.11241 0.192018 
0.649992 0.34915 0.140626 1.85919 -7.58029 3.79858 1.48772 -7.21016 3.01815 
1.10461 -7.04396 2.38479 0.797324 -6.80698 1.93446 0.518804 -0.545809 0.0801035 
0.555344 -6.11836 1.55747 0.365067 -5.11749 1.18674 0.233977 -3.95879 0.777164 
0.352946 -1.58921 0.126132 0.221992 -2.74671 0.368527 2.01064 -7.68324 4.26789 
0.535084 -0.124799 0.0808798 1.3274 -7.12889 2.75121 1.71077 -7.50979 3.48446 
0.965951 -6.95858 2.18179 0.678904 -6.5405 1.75361 0.455986 -5.69268 1.38148 
0.287886 -4.61229 1.01037 0.381484 -1.09382 0.0859497 0.192673 -3.40997 0.605043 
0.232693 -2.20434 0.251394 2.06849 -7.35371 4.67335 0.549409 0.259947 0.0909644 
1.89222 -7.77338 3.96469 1.17321 -7.04694 2.50875 1.55808 -7.38954 3.19155 
0.831676 -6.80895 1.98389 0.40587 -0.635019 0.0644146 0.565479 -6.1958 1.57119 
0.365455 -5.22762 1.20844 0.22298 -4.08451 0.839081 0.253157 -1.68021 0.166518 
0.170289 -2.85721 0.452295 1.99002 -7.6446 4.38004 0.424848 -0.218653 0.0559472 
1.758 -7.73217 3.65167 1.40292 -7.25509 2.91724 1.02252 -6.94869 2.27997 
0.701685 -6.57892 1.78678 0.460417 -5.7884 1.39176 0.2857 -4.73388 1.04112 
0.276916 -1.18502 0.109221 0.172573 -3.54093 0.676835 0.165224 -2.31203 0.325063 
0.450614 0.169628 0.0593422 1.99587 -6.97657 4.70659 1.88972 -7.82861 4.07016 
1.61621 -7.60559 3.3581 1.24544 -7.11996 2.65623 0.299487 -0.728282 0.0733524 
0.874784 -6.81071 2.0583 0.578846 -6.2653 1.59191 0.366712 -5.33757 1.22012 
0.217905 -4.21867 0.881209 0.172995 -1.78564 0.225702 0.138173 -2.99105 0.528566 
1.94334 -7.38385 4.43664 0.317795 -0.317866 0.0531402 1.77408 -7.86909 3.76687 
1.46777 -7.43802 3.07913 1.08623 -6.98313 2.40487 0.731783 -6.60779 1.84059 
0.467347 -5.88063 1.40455 0.285618 -4.85783 1.05857 0.188094 -1.28875 0.152729 
0.16279 -3.68731 0.730002 0.119479 -2.44654 0.399111 0.357624 0.0788264 0.0448832 
1.90825 -6.51899 4.66362 1.86659 -7.70528 4.14078 1.64729 -7.78547 3.48148 
1.31255 -7.25609 2.80892 0.926754 -6.82936 2.15989 0.205179 -0.831437 0.102286 
0.598124 -6.32498 1.62901 0.370333 -5.44643 1.22992 0.217006 -4.35825 0.907355 
0.11415 -1.91917 0.291713 0.120939 -3.14836 0.589958 0.274893 -0.0122516 0.0444525 
0.0922043 -2.61139 0.463825 0.160159 -3.8446 0.765996 0.288223 -4.98174 1.06984 
0.479071 -5.96578 1.42917 1.76975 -7.87334 3.8463 1.51079 -7.62403 3.20902 
0.770883 -6.63405 1.92051 1.15091 -7.07152 2.54399 1.88179 -6.96916 4.44995 
0.118275 -1.42173 0.20745 0.218921 -0.424953 0.0698087 0.11451 -3.3236 0.634821 
0.0755105 -2.08824 0.354479 0.219739 -4.49933 0.923603 0.377891 -5.54996 1.24654 
0.625513 -6.37358 1.69006 0.126692 -0.967272 0.145117 0.984489 -6.88142 2.28238 
1.36445 -7.42208 2.94267 1.65786 -7.88038 3.5678 1.83009 -7.40358 4.18771 
1.81534 -6.08857 4.55662 0.198404 -0.11336 0.0546454 0.0794234 -2.80186 0.514603 
0.162836 -4.00617 0.789266 0.0684357 -1.59437 0.264366 0.294404 -5.1008 1.08302 
0.497449 -6.03835 1.47412 0.818649 -6.67055 2.02564 1.20764 -7.20196 2.67721 
1.53408 -7.76756 3.30363 1.75312 -7.71686 3.90641 0.132411 -0.574316 0.102565 
1.80985 -6.49138 4.41599 0.115778 -3.50732 0.665367 0.0542875 -2.29073 0.407405 
0.226123 -4.6358 0.937237 0.3908 -5.64154 1.27892 0.661657 -6.41468 1.77736 
1.04186 -6.97322 2.41139 0.0668468 -1.14571 0.194139 1.39892 -7.57997 3.04659 
1.6558 -7.85363 3.63168 1.78247 -6.96245 4.20943 1.72085 -5.7337 4.39548 
0.125908 -0.238372 0.0741284 0.0773338 -3.00725 0.551206 0.169748 -4.16371 0.806015 
0.0377866 -1.80482 0.315425 0.30496 -5.20822 1.10696 0.523307 -6.09518 1.54459 
0.87077 -6.73062 2.14514 1.25229 -7.35133 2.79113 1.54364 -7.83149 3.3715 
1.72727 -7.39205 3.95537 0.066834 -0.743479 0.140227 1.7287 -6.02606 4.32646 
0.122558 -3.68875 0.686478 0.0468205 -2.51393 0.447415 0.236256 -4.76009 0.956636 
0.409656 -5.71504 1.33443 0.704519 -6.45934 1.8848 0.0276453 -1.35221 0.23855 
1.09156 -7.09537 2.52899 1.64584 -7.67498 3.68628 1.42086 -7.6985 3.12558 
1.72302 -6.44923 4.19299 0.0635353 -0.392576 0.0992201 1.62509 -5.45767 4.18853 
0.0827132 -3.21308 0.576554 0.180228 -4.30832 0.82397 0.0234821 -2.03603 0.354779 
0.320105 -5.29655 1.15017 0.555951 -6.14041 1.63894 0.920716 -6.82011 2.26252 
1.28287 -7.48835 2.87718 1.69007 -6.93155 3.98374 1.54836 -7.77673 3.43463 
0.0211631 -0.941199 0.175695 1.63713 -5.61386 4.17255 0.133276 -3.85659 0.704892 
0.0491863 -2.74029 0.475366 0.249927 -4.86388 0.99068 0.433918 -5.76873 1.41521 
0.749443 -6.52105 1.99835 0.0062484 -1.58319 0.2738 1.12914 -7.2273 2.62251 
1.4331 -7.73894 3.18463 1.63152 -7.28126 3.75571 1.65323 -5.96735 4.12168 
0.0155902 -0.580464 0.124759 0.0930329 -3.40557 0.596253 0.193571 -4.43035 0.851782 
1.52592 -5.24292 3.9388 0.0214275 -2.27613 0.382848 0.339135 -5.36083 1.21789 
0.592389 -6.18638 1.74635 0.962093 -6.93126 2.36174 1.30139 -7.58337 2.93696 
1.54722 -7.55582 3.49703 1.63615 -6.26047 3.99981 -0.00641901 -1.16859 0.204647 
1.56158 -5.40054 3.99718 0.0581257 -2.95623 0.496055 0.146672 -3.99992 0.728783 
0.266151 -4.93977 1.04643 0.461587 -5.80976 1.51465 -0.00094987 -1.82982 0.299366 
0.790338 -6.60537 2.10106 1.15334 -7.34346 2.68688 1.43871 -7.66446 3.23378 
1.60257 -6.71533 3.8078 -0.0160727 -0.803656 0.146354 0.106398 -3.57275 0.617871 
1.56794 -5.6777 3.94257 0.0279319 -2.51136 0.403299 0.208552 -4.52063 0.897455 
0.360039 -5.40258 1.30753 1.43588 -5.09174 3.68945 0.628109 -6.24642 1.85019 
1.53585 -7.15753 3.55383 0.991309 -7.04583 2.4332 1.31011 -7.60622 2.9758 
-0.0184575 -1.41973 0.225854 0.0710465 -3.14783 0.516146 1.47301 -5.14455 3.78663 
0.161248 -4.10805 0.76646 1.55416 -6.13257 3.80146 0.282819 -4.9852 1.12502 
0.00237655 -2.07814 0.317842 0.489254 -5.85255 1.6175 1.43555 -7.44901 3.27375 
0.822562 -6.70551 2.18036 1.16545 -7.41897 2.72387 -0.0317957 -1.05943 0.1623 
1.49059 -5.32918 3.79295 0.120936 -3.7019 0.649478 0.0398242 -2.72566 0.421817 
0.222941 -4.57278 0.964708 1.50578 -6.6617 3.57335 0.379627 -5.43272 1.40644 
1.31014 -7.53021 2.99928 0.65884 -6.32675 1.93586 1.0086 -7.14434 2.47596 
1.34211 -4.96208 3.41353 -0.0180237 -1.68297 0.241364 1.48756 -5.67903 3.70935 
0.0856119 -3.30035 0.543226 0.174661 -4.17119 0.823253 1.38284 -4.94692 3.5469 
1.41893 -7.09896 3.29565 0.296511 -5.00552 1.21715 0.0126755 -2.31014 0.334036 
0.513243 -5.91107 1.70669 1.16881 -7.43202 2.7409 0.844833 -6.8091 2.23222 
-0.03346 -1.33961 0.174652 1.40686 -5.04268 3.60093 0.054246 -2.90157 0.44525 
1.45482 -6.15163 3.53481 0.134223 -3.78088 0.697463 0.233059 -4.58591 1.04749 
0.394985 -5.46943 1.49733 1.30201 -7.33174 3.013 0.681438 -6.42166 1.99469 
1.01753 -7.21059 2.49636 1.24464 -4.84387 3.11438 -0.00848589 -1.94068 0.25602 
1.40884 -5.26935 3.56428 0.0993608 -3.40034 0.584488 0.182935 -4.18026 0.895015 
0.0264265 -2.50326 0.353575 1.38624 -6.62709 3.29211 1.28681 -4.77856 3.27272 
0.304499 -5.02007 1.30745 0.530703 -5.98949 1.7706 1.16809 -7.35655 2.74998 
0.857614 -6.89997 2.25761 1.31564 -4.79955 3.36701 -0.0238029 -1.6317 0.189793 
1.38662 -5.62146 3.44478 0.0688354 -3.02759 0.481847 0.141608 -3.78775 0.757107 
0.236463 -4.58001 1.1345 0.403609 -5.5242 1.56512 1.28775 -6.96459 3.02808 
0.695063 -6.51982 2.02549 1.02015 -7.22107 2.5001 1.14193 -4.72612 2.78985 
0.00680578 -2.17134 0.277314 1.31851 -4.90967 3.36396 0.0414938 -2.65473 0.38602 
0.184312 -4.15832 0.97574 0.105994 -3.40157 0.630359 0.304458 -5.04475 1.37863 
1.33697 -5.98484 3.26509 0.540009 -6.08143 1.80518 0.862481 -6.96125 2.26091 
1.16242 -7.15029 2.75549 1.17962 -4.62575 2.94892 1.22023 -4.60047 3.10084 
-0.00570734 -1.91901 0.219242 1.29323 -5.02896 3.27919 0.142597 -3.75449 0.828399 
0.230532 -4.5709 1.20754 0.40459 -5.5988 1.60324 0.0736025 -3.00599 0.508354 
0.699421 -6.60544 2.02984 1.25953 -6.41654 3.02923 1.01813 -7.14481 2.49417 
1.03174 -4.59689 2.43511 0.0345315 -2.4961 0.354533 1.19618 -4.54116 3.04616 
0.175754 -4.11511 1.0467 0.296239 -5.09028 1.42123 0.107168 -3.35758 0.687541 
0.540671 -6.17479 1.81135 1.26281 -5.31939 3.16434 0.859758 -6.96962 2.2455 
1.14983 -6.76433 2.7603 1.09324 -4.46559 2.69451 0.0140341 -2.1426 0.270062 
0.0732901 -2.93319 0.534675 0.215817 -4.57906 1.25583 1.18436 -4.57909 3.02271 
0.133596 -3.67584 0.889227 0.397796 -5.68512 1.61118 0.694917 -6.66156 2.01064 
1.00972 -6.94036 2.48098 1.20945 -5.71293 2.98969 0.929565 -4.46607 2.10342 
0.0474082 -2.57724 0.415 1.08089 -4.3308 2.70104 0.158834 -4.08367 1.09977 
0.0980478 -3.23108 0.721141 0.280891 -5.15679 1.43317 0.532173 -6.25299 1.7907 
0.8503 -6.8965 2.2158 1.16185 -4.69483 2.96059 1.12126 -6.19656 2.74578 
0.981929 -4.33258 2.33701 0.118875 -3.61252 0.943221 0.194219 -4.61664 1.27583 
0.0340713 -2.32419 0.36182 1.05357 -4.23549 2.6503 0.383278 -5.76975 1.59091 
0.681042 -6.6651 1.96926 0.993015 -6.56731 2.46132 0.0678764 -2.80048 0.568614 
1.13225 -5.01897 2.86469 0.818882 -4.30282 1.74495 0.924231 -4.17093 2.18154 
0.0898077 -3.18476 0.791044 0.135893 -4.09431 1.13327 0.259683 -5.23737 1.41621 
0.513105 -6.29516 1.74335 0.83261 -6.708 2.17272 1.04788 -4.25805 2.66599 
1.07063 -5.49083 2.68574 0.0992796 -3.62181 1.00065 0.0462801 -2.43408 0.475696 
0.167955 -4.68829 1.26762 0.927505 -4.02312 2.25662 0.358572 -5.82871 1.54108 
0.657588 -6.5924 1.90726 0.960692 -6.03334 2.41873 0.0665133 -2.81578 0.676131 
1.02989 -4.40601 2.63435 0.722032 -4.13361 1.43528 0.0753462 -3.20688 0.87528 
0.801467 -4.01489 1.77795 0.107654 -4.1628 1.14185 0.228903 -5.29723 1.36626 
0.804481 -6.3798 2.114 0.994327 -4.82214 2.54298 0.483847 -6.28409 1.67084 
0.912682 -3.92626 2.26099 0.071212 -3.68588 1.03085 0.0484437 -2.52587 0.618738 
0.131833 -4.7367 1.22028 0.918359 -3.98987 2.3341 0.907071 -5.40473 2.3288 
0.626991 -6.41846 1.82888 0.323491 -5.84433 1.46271 0.0528374 -2.86923 0.78975 
0.758632 -3.83273 1.68421 0.618523 -3.91393 1.11302 0.0498487 -3.26402 0.92752 
0.0674246 -4.17975 1.09878 0.794591 -3.70178 1.89223 0.897848 -4.26634 2.3168 
0.766415 -5.88759 2.03802 0.188714 -5.31634 1.28522 0.447561 -6.20264 1.57742 
0.0296674 -3.64551 0.991995 0.0324855 -2.64597 0.752375 0.534051 -3.69378 0.861061 
0.651668 -3.63676 1.34543 0.80265 -3.66767 1.99861 0.0872615 -4.73647 1.13793 
0.833144 -4.69562 2.17697 0.590282 -6.11056 1.73607 0.28289 -5.80994 1.36203 
0.0218554 -3.07701 0.881468 0.681204 -3.47419 1.54165 0.0207822 -4.12402 1.01656 
0.716719 -5.24235 1.93414 0.778981 -3.72528 1.99194 0.147424 -5.31022 1.18465 
0.404133 -6.02001 1.46321 -0.00951158 -3.46381 0.914065 0.453583 -3.43526 0.635978 
0.551971 -3.40439 1.04301 -0.00180398 -2.8381 0.817763 0.0467428 -4.74719 1.04144 
0.545834 -5.66525 1.62618 0.739608 -3.99905 1.94391 0.653697 -3.32004 1.52457 
0.236282 -5.69345 1.23692 -0.0162526 -4.14899 0.933667 0.650564 -4.56921 1.78108 
0.645012 -3.26987 1.57889 0.357978 -5.71251 1.33424 0.510342 -3.18541 0.967686 
0.100498 -5.22782 1.05651 -0.0452791 -3.62776 0.856366 -0.0410647 -3.0861 0.810364 
0.382566 -3.14502 0.458263 0.637136 -3.47441 1.6589 0.498394 -5.08114 1.50268 
-3.20276e-05 -4.66757 0.913902 0.187072 -5.46464 1.09079 0.490139 -3.00029 0.973038 
-0.0616846 -4.06539 0.80879 0.573577 -3.85282 1.57594 0.535019 -2.95964 1.24103 
0.331737 -2.87497 0.35397 0.314804 -5.25532 1.1992 -0.0830399 -3.4429 0.748489 
0.0504296 -5.04251 0.905091 0.453547 -4.35457 1.36826 0.520698 -2.96404 1.30085 
0.406753 -2.73951 0.738636 -0.0532686 -4.44657 0.760713 0.142602 -5.09256 0.934066 
0.298433 -2.63622 0.31048 -0.106819 -3.82092 0.667888 0.484206 -3.1431 1.30111 
0.401749 -2.58649 0.813396 0.291337 -4.59524 1.08342 -0.0115138 -4.71342 0.739022 
0.405878 -3.53713 1.20161 0.276077 -2.38893 0.32044 0.392739 -2.48888 0.87971 
-0.101377 -4.15522 0.596644 0.053093 -4.67606 0.738343 0.170132 -4.35706 0.847141 
0.384046 -2.53287 0.961692 0.286157 -3.55996 0.968582 0.269965 -2.19544 0.388442 
-0.0537402 -4.31433 0.565046 0.347944 -2.7358 0.973579 0.275851 -2.07082 0.508454 
0.0529041 -4.05464 0.618568 0.285494 -2.09032 0.662965 0.184066 -3.28595 0.743937 
0.269422 -2.47182 0.785672 
