# vtk DataFile Version 3.0
vtk output
ASCII
DATASET POLYDATA
POINTS 724 float
10.4144 -10.9633 11.5484 10.6783 -11.7907 11.4621 10.1502 -9.93509 11.7756 
10.9298 -12.4677 11.473 9.9584 -8.90568 12.1331 10.3423 -10.3588 11.9886 
11.1792 -13.0556 11.5612 9.84977 -7.89115 12.6288 10.5825 -11.1304 11.924 
10.1633 -9.47508 12.3084 10.8114 -11.7636 11.9236 11.0293 -12.338 11.9227 
11.4007 -13.5324 11.7055 10.0271 -8.55979 12.6923 9.83338 -6.95029 13.2404 
10.4231 -10.2813 12.3806 11.2241 -12.7204 12.0702 10.6813 -11.0743 12.3606 
9.9624 -7.65028 13.1912 10.238 -9.30017 12.7617 11.6093 -13.9476 11.8984 
9.9036 -6.0797 13.9664 10.9489 -11.7942 12.3719 11.4319 -13.1445 12.2028 
9.96323 -6.75201 13.7787 10.1184 -8.29425 13.2302 10.4739 -10.0943 12.7977 
11.1943 -12.3179 12.5144 11.8054 -14.3091 12.1342 10.7209 -10.8764 12.7853 
10.0167 -5.42628 14.6327 10.0748 -7.27863 13.8069 10.303 -9.0389 13.2431 
11.6336 -13.5247 12.3812 10.0707 -6.21899 14.4066 10.962 -11.5096 12.8416 
11.4308 -12.7909 12.6683 10.5124 -9.82753 13.2426 10.2083 -7.95467 13.7784 
10.1703 -4.81677 15.3595 11.9948 -14.63 12.4173 11.8352 -13.9091 12.5808 
11.2013 -12.0385 12.9714 10.1672 -5.50849 15.0456 10.7355 -10.5724 13.2464 
10.1819 -6.87097 14.3824 10.3682 -8.70392 13.7479 11.6708 -13.2603 12.8357 
10.9684 -11.2142 13.3112 10.2387 -6.02833 15.0038 10.3047 -7.57613 14.3289 
10.5523 -9.48481 13.7246 11.4471 -12.5466 13.108 12.1503 -14.8687 12.6942 
10.3072 -4.86663 15.7417 10.3524 -4.23692 16.1331 11.951 -13.9412 12.9139 
10.7586 -10.2387 13.7269 11.2119 -11.7885 13.4207 10.3277 -6.60553 14.9593 
10.4464 -8.33013 14.2744 11.7143 -13.1147 13.21 10.3553 -5.27327 15.7023 
12.145 -14.3437 13.1152 10.9849 -10.9209 13.7806 10.6111 -9.11665 14.2328 
10.4298 -7.25757 14.891 11.4722 -12.3602 13.5238 10.4118 -5.74461 15.6399 
10.4756 -4.41631 16.4199 10.5266 -3.72767 16.8401 12.3159 -15.0909 13.0342 
11.9273 -13.5411 13.3485 10.8013 -9.89201 14.2233 11.2309 -11.5561 13.8621 
10.5508 -7.97899 14.8199 10.4818 -6.29322 15.5603 10.5224 -4.8644 16.3618 
11.7127 -12.84 13.6577 12.1259 -13.9316 13.5207 10.6869 -3.24756 17.4845 
10.6375 -4.02672 17.0444 12.3202 -14.5604 13.4754 11.0175 -10.6232 14.2548 
10.6949 -8.75144 14.7634 10.5674 -6.91927 15.4703 10.5721 -5.38713 16.2586 
11.4794 -12.1118 13.9727 12.4745 -15.2658 13.4059 11.9478 -13.2924 13.8084 
10.6812 -4.56369 16.9398 10.8664 -9.53815 14.7368 10.6351 -5.95875 16.1503 
10.6714 -7.62037 15.3825 11.2526 -11.2803 14.3272 11.7338 -12.6291 14.1013 
10.7875 -3.39963 17.7187 12.2172 -13.895 13.8932 10.8657 -2.66169 18.2058 
10.731 -5.11398 16.8209 12.4452 -14.5812 13.872 10.7124 -6.58679 16.0444 
10.7982 -8.3784 15.313 11.0663 -10.2918 14.753 10.8095 -3.86552 17.5973 
11.5052 -11.8849 14.4226 12.6151 -15.3827 13.7728 12.0175 -13.2133 14.1969 
10.7924 -5.68853 16.7066 10.8447 -4.37296 17.4742 10.8059 -7.27082 15.9516 
10.9524 -9.16308 15.2744 11.2938 -10.9992 14.8032 11.7845 -12.4935 14.5101 
12.3001 -13.841 14.2631 10.9492 -3.00816 18.323 11.0239 -2.07495 18.8517 
10.8928 -4.90529 17.3529 12.5451 -14.5221 14.2703 10.8661 -6.29441 16.6079 
10.9198 -8.00749 15.8785 11.1371 -9.94663 15.2697 10.9669 -3.5952 18.1451 
12.7402 -15.4524 14.1269 11.5497 -11.6746 14.8648 12.0708 -13.0885 14.589 
11.1075 -2.27104 19.0263 10.9547 -5.44621 17.2564 11.0009 -4.15356 17.9941 
10.9531 -6.94741 16.5232 11.0596 -8.78711 15.8295 11.3541 -10.7083 15.2901 
12.3434 -13.6711 14.6568 11.8211 -12.2934 14.9363 11.1065 -2.83043 18.8271 
12.7101 -14.8092 14.5372 11.2023 -1.32958 19.5946 11.0549 -4.66697 17.8955 
11.0262 -6.02109 17.1717 11.0579 -7.65548 16.4529 11.229 -9.59024 15.8039 
12.0901 -12.8531 15.0144 11.12 -3.42395 18.6314 11.5967 -11.4054 15.3355 
12.5603 -14.121 14.7903 12.8782 -15.4894 14.5506 11.2672 -1.75022 19.6472 
11.1179 -5.19231 17.8118 11.1093 -6.64303 17.0977 11.1641 -3.91951 18.5317 
11.1856 -8.41765 16.398 12.3322 -13.3245 15.1221 11.4288 -10.368 15.8082 
11.8537 -12.0214 15.4035 11.2461 -2.58143 19.3019 12.8014 -14.6831 14.9675 
11.3712 -0.573577 20.3112 11.189 -5.74948 17.7377 11.2194 -4.41517 18.4469 
11.208 -7.3203 17.0331 12.5706 -13.8104 15.2306 11.3397 -9.20844 16.3649 
11.6552 -11.0768 15.8452 12.1084 -12.5499 15.5002 11.2807 -3.11753 19.1849 
13.0017 -15.4851 14.9631 11.3788 -1.74234 19.961 11.4603 -0.810682 20.4948 
11.2824 -4.93233 18.3702 11.2702 -6.34971 17.6723 11.3264 -8.05034 16.981 
11.3278 -3.61931 19.0918 11.5227 -9.9839 16.3618 12.3634 -13.0517 15.6058 
11.8996 -11.6962 15.9171 12.7658 -14.1795 15.4082 11.4103 -2.26147 19.8629 
12.9605 -14.8017 15.3888 11.5666 0.281186 21.1468 11.3529 -5.48095 18.3028 
11.3656 -6.99884 17.6161 11.3833 -4.12708 19.0065 11.4686 -8.81319 16.9491 
11.7342 -10.7015 16.3958 12.1561 -12.2574 16.0094 12.5963 -13.4781 15.7574 
11.4471 -2.76976 19.7607 13.1311 -15.4407 15.4354 11.5399 -1.19014 20.5944 
11.4338 -6.06834 18.245 11.446 -4.65479 18.9302 11.4787 -7.69513 17.5727 
11.638 -9.57616 16.946 11.6493 -0.112017 21.2627 11.4931 -3.28333 19.6613 
12.8496 -14.0444 15.8501 11.9709 -11.3548 16.4593 12.4085 -12.7492 16.1357 
11.5743 -1.75471 20.4859 13.0633 -14.6696 15.8744 11.7677 1.05962 21.995 
11.5171 -5.21125 18.8648 11.5282 -6.69673 18.1986 11.5473 -3.81271 19.5687 
11.613 -8.42706 17.5479 11.8375 -10.3105 16.9729 12.2221 -11.9335 16.5551 
11.6107 -2.31898 20.3596 12.6752 -13.2958 16.2388 11.7091 -0.620918 21.2587 
13.2474 -15.3605 15.9087 11.599 -5.79814 18.8137 11.6097 -4.36665 19.4863 
11.6387 -7.36592 18.1657 12.9331 -13.8857 16.3178 11.7729 -9.17705 17.5456 
11.6561 -2.88527 20.2386 11.8411 0.545414 22.0391 12.0644 -10.9878 17.0312 
12.4893 -12.5127 16.6476 11.7404 -1.23398 21.1164 13.1605 -14.5345 16.3552 
11.9771 1.74881 22.8478 11.682 -4.94165 19.4224 11.6939 -6.41762 18.7766 
11.7096 -3.47167 20.125 11.7685 -8.07247 18.1487 11.7749 -1.85378 20.9568 
11.9617 -9.91639 17.5685 12.7593 -13.1008 16.7319 12.3157 -11.6365 17.099 
11.8849 -0.0600406 21.9451 13.3528 -15.2466 16.3899 11.7734 -4.06471 20.0371 
11.7655 -5.53969 19.3769 11.8179 -2.49868 20.796 11.8037 -7.07118 18.7534 
13.0195 -13.7177 16.7995 11.922 -8.80471 18.1493 11.9096 -0.732112 21.7481 
12.1805 -10.6381 17.6057 12.0391 1.14043 22.8174 12.5811 -12.2647 17.1699 
13.2519 -14.3799 16.8441 11.8736 -3.12845 20.6734 11.8479 -4.66926 19.9748 
11.9371 -1.46263 21.5134 11.8615 -6.16239 19.3476 12.1892 2.36506 23.6692 
11.9315 -7.7576 18.7435 12.1025 -9.55235 18.1615 12.8485 -12.8885 17.2382 
12.0641 0.438686 22.6206 12.4241 -11.3306 17.652 13.4485 -15.1002 16.8815 
12.0689 -0.417907 22.2769 11.9837 -2.13157 21.3468 11.9397 -3.75677 20.5846 
11.9336 -5.28959 19.9342 13.1058 -13.526 17.2986 11.9718 -6.81002 19.3322 
12.0805 -8.47574 18.743 12.3115 -10.2937 18.1831 12.6818 -11.9973 17.7047 
12.2367 1.63759 23.5469 13.3378 -14.1963 17.3481 12.2088 0.578277 23.0527 
12.1066 -1.11177 22.0678 12.0419 -2.78235 21.2235 12.0163 -4.39425 20.5247 
12.0311 -5.92602 19.9118 12.0985 -7.48407 19.3261 12.9417 -12.6495 17.7611 
12.3924 2.93339 24.406 12.2539 -9.21489 18.7485 12.5443 -11.0126 18.2133 
13.5353 -14.9221 17.384 12.3536 1.47313 23.7874 12.2431 -0.11265 22.8325 
12.1572 -1.76653 21.9085 12.1096 -3.43855 21.1343 13.1921 -13.3041 17.8169 
12.1037 -5.04356 20.4889 12.1419 -6.5765 19.9019 12.2446 -8.18347 19.3255 
12.7908 -11.706 18.253 12.4533 -9.95619 18.7607 12.4723 2.46059 24.4508 
13.4199 -13.9803 17.8703 12.2871 -0.752705 22.647 12.394 0.84678 23.6209 
12.2157 -2.42435 21.7827 12.1872 -4.10897 21.0758 12.2023 -5.70059 20.4717 
12.268 -7.24071 19.8992 13.0397 -12.3809 18.3012 12.4125 -8.90226 19.3282 
12.6744 -10.6846 18.7811 12.6056 3.55125 25.1102 13.6143 -14.715 17.8948 
12.544 1.88895 24.4083 12.3373 -1.39119 22.4854 12.4327 0.231045 23.4294 
12.2828 -3.10211 21.6898 13.2801 -13.0503 18.3552 12.2756 -4.79085 21.0438 
12.3134 -6.35851 20.4667 12.4121 -7.91933 19.8992 12.9076 -11.3939 18.8123 
12.6032 -9.62902 19.3358 12.6769 2.96088 25.0873 13.5 -13.7297 18.414 
12.5855 1.24906 24.2336 12.4752 -0.381817 23.2416 12.394 -2.05049 22.351 
12.3603 -3.80353 21.6304 12.3748 -5.4728 21.0313 12.4393 -7.01577 20.4667 
13.1432 -12.0857 18.8559 12.5756 -8.61194 19.9013 12.8122 -10.3529 19.3509 
13.6858 -14.4823 18.4081 12.7947 4.13858 25.6633 12.7342 2.32365 24.9853 
12.6234 0.623787 24.0317 12.5224 -1.00855 23.069 13.3712 -12.7665 18.9115 
12.4593 -2.7427 22.2512 12.4487 -4.51873 21.6009 12.486 -6.14284 21.0303 
12.5819 -7.67442 20.468 13.031 -11.0671 19.3781 12.758 -9.31445 19.9067 
12.8656 3.48108 25.6225 13.5803 -13.4448 18.9809 12.7746 1.66513 24.8058 
12.6637 0.00732786 23.8312 12.5759 -1.664 22.9235 12.5355 -3.46919 22.1885 
12.548 -5.22877 21.5928 12.6117 -6.79702 21.0328 13.2518 -11.7687 19.4203 
12.7413 -8.33906 20.4693 12.9544 -10.0213 19.9195 13.7498 -14.2305 18.912 
12.9651 4.69911 26.0967 12.919 2.79687 25.5063 12.8115 1.02482 24.6003 
12.7081 -0.617212 23.6463 12.6384 -2.36091 22.8143 13.4657 -12.458 19.4809 
12.623 -4.21476 22.1603 12.6595 -5.91514 21.5955 12.7527 -7.4388 21.0342 
13.1577 -10.7274 19.9452 12.915 -9.01095 20.4735 13.8061 -13.9699 19.3903 
13.0985 -9.69066 20.4856 12.9075 -8.07577 21.0348 12.7847 -6.57122 21.6003 
12.7221 -4.95375 22.1564 12.9592 2.11023 25.3301 12.85 0.400067 24.3943 
12.7119 -3.10141 22.7469 12.7588 -1.26732 23.4898 13.0412 4.01155 26.0685 
13.3612 -11.4252 19.9887 13.6631 -13.1315 19.5704 13.0723 -8.71433 21.038 
13.2855 -10.3753 20.5118 12.9235 -7.20031 21.6019 12.8334 -5.66092 22.1636 
12.7974 -3.86922 22.7192 13.5574 -12.1057 20.0584 12.8179 -1.9597 23.3719 
12.8926 -0.223658 24.2036 12.996 1.44725 25.1286 13.0966 3.30029 25.9643 
13.1209 5.22816 26.4375 13.8597 -13.6833 19.8751 13.2428 -9.36055 21.0501 
13.0731 -7.81278 21.6013 13.4703 -11.0536 20.5604 12.9578 -6.32439 22.1709 
12.8958 -4.63527 22.7195 12.8874 -2.69991 23.2996 12.9403 -0.865867 24.0407 
13.0337 0.807916 24.925 13.1392 2.58876 25.8039 13.7381 -12.7449 20.1757 
13.2062 4.54229 26.4382 13.2289 -8.41958 21.6036 13.4135 -10.0129 21.0789 
13.0939 -6.94653 22.1733 13.007 -5.3658 22.7327 12.9697 -3.47943 23.2711 
[...]
POINT_DATA 724
VECTORS velocity double
1.19285 -1.76241 1.55917 1.35654 -1.17971 1.64542 0.97633 -2.40671 1.44239 
1.46757 -0.674103 1.68836 0.780402 -2.98134 1.35877 1.03873 -2.24588 1.41151 
1.53732 -0.232235 1.69024 0.641836 -3.53532 1.34637 1.19457 -1.75913 1.47407 
0.852324 -2.7812 1.31352 1.31389 -1.31408 1.51745 1.41105 -0.871882 1.55401 
1.56987 0.112149 1.65761 0.697653 -3.27605 1.27295 0.587607 -4.10417 1.42231 
0.982826 -2.39706 1.29954 1.45032 -0.595915 1.5256 1.13373 -1.91333 1.33525 
0.601535 -3.77391 1.30487 0.781031 -2.9752 1.20657 1.57648 0.39151 1.59742 
0.617072 -4.73635 1.58257 1.26557 -1.40298 1.37115 1.48483 -0.276097 1.49538 
0.581958 -4.32395 1.42637 0.632344 -3.50347 1.19867 0.897763 -2.60207 1.17088 
1.33314 -1.02225 1.34837 1.56199 0.611225 1.51429 1.03699 -2.14934 1.18125 
0.692822 -5.30269 1.7625 0.568436 -4.05964 1.30007 0.696054 -3.18925 1.10271 
1.49595 -0.00233952 1.43965 0.608715 -4.74142 1.53261 1.14374 -1.73045 1.18293 
1.37742 -0.662057 1.31216 0.794907 -2.8314 1.03934 0.573888 -3.73676 1.15541 
0.799795 -5.89565 1.96829 1.52917 0.781204 1.40919 1.49189 0.261867 1.36897 
1.21407 -1.35308 1.15689 0.69225 -5.32215 1.73911 0.910792 -2.43764 1.01358 
0.561538 -4.34863 1.34414 0.610843 -3.40733 1.02197 1.40389 -0.300408 1.26354 
1.01046 -2.04514 0.992375 0.626509 -4.94317 1.56658 0.535137 -3.96754 1.15387 
0.683165 -3.06768 0.920132 1.26904 -0.960764 1.12629 1.48847 0.887836 1.30477 
0.802555 -5.91215 1.95653 0.920551 -6.47155 2.17646 1.44155 0.231753 1.24459 
0.779092 -2.70579 0.855904 1.08996 -1.64679 0.965315 0.564989 -4.55059 1.3745 
0.539545 -3.61227 0.976956 1.32292 -0.494296 1.10919 0.735123 -5.57516 1.81071 
1.42232 0.493195 1.16754 0.874927 -2.32293 0.812477 0.580822 -3.27409 0.829927 
0.515386 -4.15535 1.16801 1.16254 -1.20141 0.947255 0.661249 -5.19216 1.63772 
0.892675 -6.33821 2.11059 1.02603 -6.92146 2.34412 1.43197 0.966575 1.17724 
1.33803 -0.159862 1.06752 0.653322 -2.93117 0.723263 0.964752 -1.90181 0.78287 
0.489465 -3.78201 0.961795 0.584764 -4.7731 1.43649 0.808623 -5.94437 1.94333 
1.20327 -0.812751 0.914659 1.33218 0.125538 1.00875 1.11451 -7.24782 2.47462 
0.967466 -6.66148 2.22803 1.36238 0.586208 1.0312 0.741806 -2.55766 0.652787 
0.497317 -3.43829 0.775071 0.514253 -4.34551 1.2142 0.713985 -5.48623 1.74264 
1.03307 -1.48459 0.754978 1.36563 1.00771 1.04109 1.22452 -0.445521 0.873956 
0.861273 -6.18892 2.02795 0.541219 -3.10666 0.625869 0.618795 -5.00811 1.52059 
0.460749 -3.93842 0.982876 0.827226 -2.15524 0.60639 1.08306 -1.06492 0.726276 
1.07908 -7.09376 2.40245 1.25625 0.0404166 0.862967 1.20471 -7.48986 2.59811 
0.754419 -5.69309 1.81365 1.28757 0.543005 0.88459 0.52861 -4.53141 1.28048 
0.436028 -3.57268 0.762004 0.610523 -2.7576 0.520463 0.987867 -6.73145 2.243 
0.903408 -1.7206 0.575739 1.29751 1.01601 0.911711 1.13471 -0.568629 0.717656 
0.648841 -5.18718 1.58458 0.885992 -6.29709 2.05618 0.451894 -4.08447 1.03147 
0.447002 -3.2406 0.572471 0.692252 -2.36298 0.453534 0.976356 -1.2273 0.564432 
1.17568 -0.051985 0.721216 1.13191 -7.2329 2.46866 1.28032 -7.56858 2.69821 
0.779337 -5.81876 1.84968 1.20629 0.450579 0.740562 0.548156 -4.6907 1.34326 
0.398246 -3.68643 0.786828 0.49251 -2.90439 0.428041 1.02036 -6.83867 2.27922 
1.2301 1.00221 0.792511 0.779155 -1.90539 0.420077 1.03583 -0.718742 0.565336 
1.23323 -7.41129 2.61309 0.673897 -5.33025 1.63211 0.909141 -6.39368 2.08079 
0.456322 -4.21804 1.09143 0.376901 -3.33525 0.563879 0.565005 -2.52094 0.333888 
1.07803 -0.231503 0.572235 0.855852 -1.41995 0.408883 1.1365 -7.17906 2.45545 
1.15679 0.602942 0.656241 1.36734 -7.48085 2.82314 0.803995 -5.94212 1.88296 
0.569215 -4.83455 1.39973 0.380693 -3.78684 0.83678 0.393822 -3.00089 0.381722 
0.914298 -0.94748 0.408391 1.02628 -6.8301 2.26978 0.646248 -2.08766 0.284293 
1.07972 0.108474 0.549383 1.14817 0.965336 0.658577 1.28824 -7.34764 2.68862 
0.697925 -5.46781 1.67354 0.468535 -4.3469 1.15396 0.926214 -6.45728 2.09255 
0.331199 -3.40593 0.593741 0.943967 -0.54918 0.400862 0.443962 -2.64483 0.255104 
0.719002 -1.63284 0.263207 1.15117 -7.13648 2.46332 1.06463 0.478881 0.517417 
1.46017 -7.26133 2.98627 0.59064 -4.97542 1.4498 0.82407 -6.04438 1.90518 
0.378081 -3.88752 0.90082 0.963247 -0.158916 0.396844 0.316951 -3.06472 0.384316 
0.510457 -2.24821 0.181057 0.770741 -1.20107 0.252671 1.04853 -6.85358 2.28827 
1.06751 0.914438 0.538362 1.26638 -7.20775 2.64655 1.40997 -7.17449 2.90129 
0.718238 -5.59244 1.70391 0.4847 -4.47925 1.21307 0.307089 -3.47531 0.65314 
0.947918 -6.52276 2.11226 0.338186 -2.72833 0.226832 0.809309 -0.778707 0.249993 
0.573976 -1.82753 0.143202 0.949208 0.108253 0.3682 1.16938 -7.05146 2.48015 
0.979035 0.515174 0.404196 1.58912 -6.99425 3.26961 0.609665 -5.111 1.48875 
0.385225 -3.99987 0.968693 0.844184 -6.14078 1.9262 0.265158 -3.11313 0.430073 
0.383026 -2.36498 0.124591 0.628666 -1.39401 0.127363 0.820605 -0.427782 0.238143 
1.0714 -6.83684 2.31139 0.974411 0.844443 0.414342 1.3302 -7.07587 2.76115 
0.500871 -4.61483 1.26195 0.736497 -5.71111 1.72768 0.299754 -3.55878 0.727008 
0.256569 -2.77675 0.249763 1.51423 -6.97919 3.13061 0.969746 -6.55899 2.13439 
0.846195 -0.000669146 0.251776 0.437574 -1.96372 0.0668897 0.66388 -0.988853 0.119435 
1.22146 -6.97215 2.56713 0.873793 0.406836 0.282097 1.73954 -6.87329 3.66352 
0.625654 -5.24244 1.51689 0.396433 -4.12507 1.02927 0.863279 -6.21709 1.94608 
0.236725 -3.16611 0.502573 0.277376 -2.42809 0.120561 0.487063 -1.54786 0.0393512 
1.11184 -6.80971 2.37391 0.702104 -0.54749 0.128368 1.40919 -6.93859 2.93058 
0.880818 0.766539 0.305843 0.514633 -4.75238 1.2978 0.751792 -5.81394 1.74508 
0.302292 -3.66218 0.798987 0.737372 -0.107115 0.149743 0.202515 -2.80868 0.310111 
1.00029 -6.57855 2.17797 1.63672 -6.89843 3.44364 0.315909 -2.04856 0.0405477 
0.537495 -1.10076 0.0340911 1.28425 -6.87056 2.69356 0.769808 0.312484 0.181933 
1.88763 -6.93476 4.11122 0.637972 -5.36506 1.53514 0.407308 -4.26023 1.07592 
0.883991 -6.27163 1.9728 0.225183 -3.23804 0.581277 1.15908 -6.74981 2.4631 
0.198396 -2.45792 0.161797 0.584952 -0.644729 0.0456325 0.365672 -1.62671 -0.00177266 
1.50375 -6.86801 3.1627 0.785531 0.682763 0.212359 0.765959 -5.89987 1.76232 
0.524654 -4.88793 1.32063 1.03018 -6.55698 2.23072 0.30833 -3.78395 0.857967 
0.628142 -0.19673 0.069581 0.171792 -2.85015 0.38809 1.35624 -6.79821 2.86131 
0.220642 -2.0807 0.0587624 1.75809 -6.96267 3.79724 0.419159 -1.17753 -0.0152092 
0.665218 0.223711 0.101644 0.903852 -6.29188 2.00532 0.647612 -5.4771 1.54826 
1.20075 -6.68256 2.55832 0.415362 -4.40095 1.10708 1.99542 -7.07898 4.50374 
0.223111 -3.33563 0.651691 0.146539 -2.47706 0.228402 0.471332 -0.720906 -0.00820878 
1.59624 -6.89968 3.41975 0.261264 -1.66774 -0.00225657 0.688332 0.595247 0.134628 
1.39953 -6.7743 2.98691 1.05972 -6.51427 2.29564 0.778788 -5.96109 1.78224 
0.531297 -5.0195 1.33434 0.518917 -0.276752 0.0124183 0.314108 -3.92076 0.900657 
0.157129 -2.91543 0.464372 0.149701 -2.09488 0.109125 0.31115 -1.22842 -0.0297872 
1.843 -7.10627 4.09453 0.559498 0.137193 0.0411593 1.60775 -6.94635 3.49477 
1.24007 -6.64101 2.66495 0.924733 -6.28822 2.05005 0.655229 -5.574 1.5607 
0.420301 -4.5449 1.12604 0.224935 -3.45703 0.706716 0.362815 -0.782296 -0.033247 
2.04015 -7.16987 4.75465 0.115642 -2.51445 0.303987 0.175815 -1.68972 0.0304102 
0.589769 0.506181 0.0735726 1.78081 -7.15029 3.98139 1.43939 -6.80672 3.1209 
1.09266 -6.47977 2.38143 0.792376 -6.00159 1.81187 0.411398 -0.349349 -0.0207898 
0.535484 -5.14471 1.34416 0.318271 -4.06901 0.929101 0.152144 -3.01302 0.5303 
0.216175 -1.26424 -0.0135353 0.100913 -2.11767 0.177038 1.93583 -7.25446 4.47524 
0.453667 0.0533217 0.00121103 1.28304 -6.65235 2.79487 1.63031 -7.05193 3.61649 
0.949687 -6.27907 2.11495 0.662955 -5.65685 1.5797 0.423078 -4.69063 1.13846 
0.228217 -3.60072 0.747359 0.262455 -0.833265 -0.0310549 0.0999015 -2.58588 0.376278 
0.110302 -1.71233 0.0854198 2.0248 -7.12891 4.85818 0.491379 0.418145 0.0298091 
1.80339 -7.27133 4.13237 1.13064 -6.47998 2.49185 1.47796 -6.90297 3.26781 
0.809332 -6.02967 1.85859 0.308413 -0.415389 -0.030334 0.539352 -5.26376 1.35751 
0.321386 -4.22745 0.948894 0.152801 -3.14299 0.583153 0.137338 -1.29659 0.0263164 
0.0708079 -2.16849 0.248883 1.91942 -7.25725 4.55329 0.349656 -0.027542 -0.0181664 
1.65844 -7.19182 3.765 1.32447 -6.72533 2.93583 0.979858 -6.28368 2.20318 
0.673079 -5.72712 1.61237 0.425614 -4.83771 1.15164 0.232281 -3.7629 0.777378 
0.174201 -0.879482 -0.00610972 0.0944879 -2.69564 0.438303 0.0643318 -1.75368 0.150243 
0.395837 0.333167 0.00297447 1.96816 -6.96257 4.81643 1.79522 -7.31825 4.21062 
1.51006 -7.0421 3.41087 1.16931 -6.52915 2.61677 0.213878 -0.476808 -0.0188031 
0.830954 -6.05488 1.9262 0.545032 -5.37468 1.38155 0.324657 -4.39312 0.966352 
0.15685 -3.30009 0.623928 0.0765296 -1.33912 0.0796963 0.0553142 -2.25758 0.314772 
1.87694 -7.13503 4.54506 0.250598 -0.105532 -0.0182907 1.66094 -7.28724 3.85647 
1.35844 -6.84769 3.07041 1.01268 -6.3177 2.30872 0.687093 -5.78572 1.66335 
0.429626 -4.98191 1.17236 0.237322 -3.93786 0.801784 0.101336 -0.929996 0.0339667 
0.09595 -2.84006 0.487953 0.0356699 -1.82805 0.214078 0.306942 0.252726 -0.00877467 
1.89132 -6.73927 4.67846 1.76706 -7.26011 4.23175 1.52059 -7.16734 3.50897 
1.20296 -6.62643 2.74036 0.856295 -6.08835 2.01223 0.131857 -0.538352 0.00820847 
0.55389 -5.4724 1.42142 0.329338 -4.56004 0.987784 0.1633 -3.47609 0.655994 
0.0336575 -1.40755 0.136473 0.0506131 -2.3864 0.369826 0.228621 0.177412 -0.00902759 
0.0212279 -1.94246 0.270016 0.102095 -3.01135 0.526879 0.243891 -4.11767 0.826198 
0.436283 -5.11512 1.20615 1.64438 -7.3002 3.89856 1.37496 -6.98064 3.17098 
0.705008 -5.83559 1.73269 1.04366 -6.38939 2.41905 1.81884 -6.92248 4.46831 
0.0451761 -1.00128 0.0807115 0.160717 -0.181091 -0.00284703 0.0536299 -2.54937 0.413484 
0.00709225 -1.51282 0.188979 0.171862 -3.66183 0.684313 0.336188 -4.71879 1.01881 
0.566241 -5.55183 1.47884 0.064126 -0.619954 0.04404 0.882429 -6.14169 2.10796 
1.22363 -6.7498 2.8407 1.51285 -7.23883 3.56308 1.72582 -7.09633 4.20364 
1.80409 -6.51298 4.47372 0.156681 0.0995849 -0.00130393 0.0178061 -2.09554 0.315332 
0.111605 -3.1988 0.558947 0.00575652 -1.1055 0.126739 0.252396 -4.29215 0.856326 
0.445714 -5.22708 1.25583 0.72534 -5.88485 1.81505 1.06619 -6.49217 2.51604 
1.37435 -7.08831 3.23263 1.61558 -7.21085 3.90114 0.0820081 -0.282674 0.0230494 
1.75043 -6.66638 4.33325 0.0620163 -2.73555 0.448152 -0.00558888 -1.65805 0.232845 
0.182405 -3.84603 0.714452 0.345263 -4.85746 1.06351 0.58084 -5.6125 1.54999 
0.904735 -6.22109 2.19975 0.0124841 -0.731199 0.0819613 1.22907 -6.87147 2.9079 
1.49259 -7.22687 3.58178 1.67578 -6.85117 4.13083 1.71012 -6.31028 4.22011 
0.0885886 0.00969746 0.0125027 0.0224618 -2.27856 0.350827 0.123591 -3.38978 0.589314 
-0.0178058 -1.2465 0.166241 0.262756 -4.44941 0.8973 0.456686 -5.31032 1.3196 
0.744169 -5.94366 1.89822 1.07738 -6.61166 2.58907 1.36059 -7.13876 3.26019 
1.57936 -7.01889 3.87078 0.0223533 -0.392188 0.050495 1.6727 -6.40399 4.1432 
0.0740555 -2.93134 0.478339 -0.00729892 -1.83622 0.26682 0.194595 -4.01643 0.752161 
0.355395 -4.96506 1.12252 0.594716 -5.66208 1.62495 -0.0214714 -0.865169 0.113874 
0.918161 -6.32209 2.27258 1.465 -7.11311 3.57343 1.22296 -6.96586 2.94647 
1.61795 -6.56094 4.01212 0.0295363 -0.0953239 0.0286267 1.60947 -6.13489 3.92637 
0.0326441 -2.47696 0.379833 0.137319 -3.57096 0.623979 -0.0278392 -1.41585 0.19577 
0.273938 -4.57717 0.952031 0.46668 -5.36543 1.38962 0.756868 -6.01918 1.96792 
1.07578 -6.72297 2.63096 1.53618 -6.74712 3.80354 1.34231 -7.10471 3.27195 
-0.0199829 -0.520118 0.0734981 1.58323 -6.15524 3.89365 0.0884023 -3.12174 0.509838 
-0.00117006 -2.03312 0.292916 0.207502 -4.16019 0.802112 0.36407 -5.0357 1.19053 
0.604021 -5.7134 1.69017 -0.0403502 -1.0245 0.136866 0.919829 -6.43052 2.31671 
1.20788 -6.99933 2.95901 1.43853 -6.87172 3.5573 1.55165 -6.27664 3.8451 
-0.0170206 -0.219669 0.042333 0.0462963 -2.6747 0.407721 0.151806 -3.72856 0.668665 
1.49987 -5.97741 3.593 -0.0276392 -1.60689 0.217068 0.283619 -4.66602 1.01849 
0.472137 -5.40312 1.45273 0.759489 -6.10886 2.01203 1.06312 -6.79974 2.64301 
1.3212 -6.95796 3.26724 1.49151 -6.36588 3.70825 -0.0468409 -0.67191 0.0888947 
1.49025 -5.97684 3.63855 0.0102073 -2.23508 0.316303 0.103852 -3.29194 0.548932 
0.219089 -4.26573 0.865285 0.367726 -5.07357 1.25556 -0.0470752 -1.20697 0.151815 
0.604974 -5.77552 1.73279 0.909115 -6.52498 2.32847 1.18768 -6.94501 2.95235 
1.40808 -6.53525 3.50982 -0.049664 -0.367476 0.0499188 0.0618354 -2.85655 0.441037 
1.44172 -6.03364 3.56343 -0.0200997 -1.8087 0.234748 0.165303 -3.84944 0.726717 
0.288088 -4.71348 1.08713 1.39659 -5.84643 3.27304 0.469724 -5.43859 1.49497 
1.2965 -6.70148 3.24026 0.75005 -6.19972 2.02404 1.04168 -6.8154 2.62883 
-0.0602762 -0.848311 0.0967118 0.02475 -2.42635 0.343405 1.39667 -5.78692 3.35413 
0.118794 -3.42749 0.600587 1.366 -6.18608 3.40821 0.225922 -4.32613 0.935789 
-0.0444653 -1.40433 0.162663 0.362752 -5.09282 1.30206 1.16191 -6.78944 2.92354 
0.595369 -5.84754 1.745 0.887199 -6.58252 2.30937 -0.0685918 -0.54173 0.0505836 
1.36352 -5.79013 3.33782 0.0775607 -3.00623 0.485593 -0.00770767 -2.00592 0.255006 
0.174791 -3.92304 0.795704 1.25956 -6.38425 3.16672 0.283153 -4.72793 1.14203 
1.01297 -6.75008 2.59117 0.457613 -5.4837 1.50733 0.729271 -6.27526 2.00446 
1.28627 -5.71347 2.92936 -0.0625188 -1.04534 0.100504 1.29948 -5.88324 3.23005 
0.0405068 -2.5894 0.380517 0.130582 -3.51459 0.665143 1.29586 -5.61315 3.04573 
1.12707 -6.54298 2.86267 0.223511 -4.34274 0.999348 -0.0352179 -1.60233 0.175368 
0.347087 -5.11161 1.31778 0.857242 -6.58423 2.26577 0.575443 -5.92189 1.72615 
-0.0749457 -0.742813 0.0477876 1.27551 -5.56585 3.07628 0.00724308 -2.17979 0.284279 
1.20444 -6.04636 3.03314 0.0911015 -3.1078 0.543926 0.175903 -3.94393 0.864215 
0.26622 -4.72855 1.16802 0.978422 -6.5923 2.53257 0.435419 -5.53973 1.48695 
0.700578 -6.32095 1.96006 1.16971 -5.57159 2.56685 -0.0558945 -1.25254 0.106881 
1.2211 -5.589 3.00655 0.0553105 -2.70731 0.431988 0.134996 -3.5394 0.733412 
-0.0221079 -1.77948 0.19594 1.08181 -6.21792 2.76445 1.186 -5.44176 2.70659 
0.208718 -4.33286 1.04002 0.320638 -5.14183 1.29794 0.824223 -6.51276 2.20805 
0.546657 -5.98499 1.67933 1.17799 -5.3539 2.77854 -0.070226 -0.96829 0.0500166 
1.13729 -5.68416 2.85186 0.0228845 -2.31633 0.328927 0.0978792 -3.13396 0.606769 
0.165666 -3.92833 0.918601 0.236697 -4.73302 1.15619 0.942961 -6.32259 2.46153 
0.404289 -5.60023 1.43654 0.6666 -6.31637 1.89649 1.04601 -5.41125 2.18472 
-0.0426604 -1.45356 0.124806 1.13047 -5.30639 2.73634 -0.00662183 -1.93143 0.232755 
0.130032 -3.52095 0.796315 0.062999 -2.72708 0.484074 0.180038 -4.31509 1.04466 
1.0324 -5.79125 2.63532 0.284592 -5.18478 1.24441 0.511203 -6.02127 1.60989 
0.789649 -6.34265 2.13841 1.06233 -5.26197 2.32156 1.07366 -5.1556 2.45595 
-0.0556436 -1.21193 0.0714129 1.0573 -5.27177 2.60398 0.0975451 -3.11342 0.671034 
0.141799 -3.89162 0.943154 0.196081 -4.75151 1.10629 0.0290099 -2.3084 0.361634 
0.365309 -5.65159 1.35996 0.903784 -5.94143 2.36617 0.630177 -6.23893 1.81983 
0.913711 -5.21969 1.78103 -0.0140601 -1.77434 0.203907 1.01783 -5.01201 2.35933 
0.113062 -3.4667 0.836922 0.138705 -4.30679 1.00918 0.0657087 -2.7001 0.540804 
0.240433 -5.23287 1.16181 0.968764 -5.33733 2.44494 0.470301 -6.00983 1.52138 
0.755468 -6.05176 2.05813 0.952035 -5.03809 2.01374 -0.0361038 -1.42437 0.120713 
0.0307237 -2.24913 0.390168 0.105143 -3.85758 0.930832 0.960648 -4.92089 2.28922 
0.0871768 -3.0375 0.716595 0.146503 -4.78305 1.02278 0.319632 -5.67745 1.26103 
0.592079 -6.06295 1.73121 0.857784 -5.46469 2.23062 0.792777 -5.018 1.41849 
0.0018059 -1.87355 0.268344 0.904993 -4.80843 1.97694 0.0852813 -3.41029 0.849413 
0.0589849 -2.58319 0.569747 0.0871281 -4.3155 0.935849 0.189132 -5.27121 1.05418 
0.425974 -5.92876 1.4181 0.888668 -4.88486 2.1772 0.71726 -5.64695 1.95301 
0.826618 -4.84798 1.62168 0.0702011 -2.9672 0.747952 0.0572513 -3.8431 0.879951 
-0.011915 -1.62359 0.21473 0.845408 -4.62355 1.8844 0.0898368 -4.81821 0.911155 
0.267935 -5.65625 1.14229 0.553791 -5.77053 1.63121 0.0291724 -2.13409 0.422935 
0.796338 -4.97606 2.03149 0.665047 -4.76563 1.04546 0.748881 -4.6109 1.4375 
0.0530825 -2.54552 0.626684 0.0466918 -3.38193 0.830077 0.027606 -4.3398 0.829224 
0.130728 -5.27922 0.923674 0.37897 -5.75616 1.30139 0.792095 -4.52007 1.84935 
0.672406 -5.15373 1.80975 0.0430632 -2.95299 0.766377 0.00766858 -1.76547 0.329227 
-0.000569501 -3.85722 0.790403 0.720949 -4.37742 1.47445 0.0259395 -4.83488 0.773879 
0.211244 -5.56861 1.00627 0.511318 -5.37315 1.50859 0.0341072 -2.17399 0.522033 
0.718333 -4.50686 1.76083 0.557165 -4.50965 0.741457 0.0379765 -2.56231 0.683933 
0.61789 -4.37332 1.03347 -0.00548133 -3.39686 0.768338 -0.039417 -4.35086 0.69277 
0.329327 -5.48139 1.17009 0.611532 -4.66146 1.60997 0.066384 -5.24032 0.77313 
0.673306 -4.19231 1.43929 -0.000366298 -2.97398 0.739993 0.019843 -1.89061 0.465584 
-0.067214 -3.85381 0.663731 0.62323 -4.12679 1.44857 0.45931 -4.90819 1.34986 
0.152963 -5.39894 0.858126 -0.0438223 -4.81565 0.614972 0.024883 -2.23429 0.613206 
0.559155 -4.11347 0.926672 0.446774 -4.18974 0.445966 0.00580778 -2.59224 0.694951 
-0.0672951 -3.36545 0.660664 0.559486 -3.91155 1.08147 0.532538 -4.20481 1.35734 
0.280196 -5.09552 1.02635 -0.111179 -4.33057 0.533817 -0.000120037 -5.14103 0.608696 
-0.0523658 -2.89663 0.657346 0.010977 -2.01821 0.576901 0.360948 -3.88304 0.232443 
0.450652 -3.82827 0.618618 0.518325 -3.77815 1.1227 -0.136838 -3.81331 0.513752 
0.401901 -4.37371 1.15565 0.0965431 -5.12921 0.703094 -0.11475 -4.75435 0.442246 
-0.0159259 -2.40331 0.647958 0.448526 -3.60307 0.760192 -0.127473 -3.27678 0.533009 
0.233931 -4.60767 0.871446 0.443593 -3.71869 1.05153 -0.18222 -4.29208 0.361119 
-0.066376 -4.95851 0.435257 -0.0864026 -2.70791 0.575684 0.283038 -3.53831 0.0580082 
0.353308 -3.50433 0.364714 -0.0299389 -2.17417 0.595111 -0.205156 -3.78782 0.348256 
0.0436304 -4.76321 0.54569 0.340495 -3.81486 0.928142 0.39653 -3.37579 0.716213 
-0.185178 -4.62332 0.258477 -0.187919 -3.26498 0.390099 0.184858 -4.0887 0.700026 
0.349076 -3.25669 0.713822 -0.126263 -4.68127 0.263339 0.304732 -3.21503 0.301328 
-0.252086 -4.18926 0.176676 -0.155145 -2.8146 0.435763 -0.0937764 -2.36041 0.514938 
0.217302 -3.16713 -0.0641163 0.270939 -3.33876 0.689132 0.00121634 -4.30562 0.397238 
-0.270336 -3.6874 0.173551 -0.249612 -4.40166 0.0729847 0.271918 -2.97551 0.297686 
-0.24767 -3.16123 0.226519 0.143036 -3.51868 0.525117 0.264412 -2.89712 0.454741 
0.171538 -2.83329 -0.12339 -0.171696 -4.30076 0.107615 -0.188375 -2.63151 0.329818 
-0.314882 -4.0022 -0.00671698 -0.0205286 -3.7546 0.274104 0.202737 -2.83883 0.436568 
0.201971 -2.65246 0.13471 -0.322604 -3.47088 0.0156532 -0.29891 -4.07518 -0.0980895 
0.140872 -2.54514 -0.13751 -0.284428 -2.92921 0.0983193 0.110216 -2.91668 0.34902 
0.175352 -2.46438 0.171787 -0.183119 -3.79631 6.02441e-05 -0.362145 -3.69957 -0.149952 
-0.0214068 -3.12823 0.175821 0.116318 -2.25263 -0.115389 0.13743 -2.33889 0.18507 
-0.362743 -3.20396 -0.132291 -0.355697 -3.69979 -0.2412 -0.275744 -3.53503 -0.187083 
0.0823935 -2.34921 0.176226 -0.142313 -3.04322 -0.0413099 0.098858 -2.02894 -0.0664824 
-0.396065 -3.35747 -0.301194 -0.00570614 -2.47598 0.0942962 0.0782622 -1.88898 -0.00770318 
-0.347924 -3.23157 -0.333351 0.036951 -1.90028 0.0278047 -0.21541 -2.76448 -0.19892 
-0.0632444 -2.20764 -0.0303672 
