# vtk DataFile Version 3.0
vtk output
ASCII
DATASET POLYDATA
POINTS 724 float
9.85622 -10.1072 10.7224 10.0237 -11.2195 10.5842 9.70741 -8.80663 11.0073 
10.2031 -12.1722 10.5635 9.60809 -7.5607 11.3891 9.87505 -9.28669 11.2491 
10.4016 -13.0176 10.6426 9.55117 -6.3394 11.8581 10.0323 -10.2656 11.154 
9.78895 -8.19896 11.6115 10.1914 -11.1132 11.1266 10.3455 -11.9241 11.0979 
10.5945 -13.7006 10.7992 9.71767 -7.1102 11.9942 9.53481 -5.16854 12.3919 
9.99373 -9.13961 11.712 10.5122 -12.4612 11.2576 10.1757 -10.127 11.6799 
9.67909 -6.02088 12.4458 9.90414 -7.95215 12.1296 10.7907 -14.2828 11.022 
9.55634 -4.01143 12.9989 10.3669 -11.0855 11.6692 10.6908 -13.0728 11.4015 
9.65982 -4.8984 12.935 9.83917 -6.77298 12.5761 10.0958 -8.86732 12.2084 
10.5688 -11.8053 11.8216 10.9883 -14.7722 11.3032 10.278 -9.81544 12.2025 
9.60132 -3.07048 13.5482 9.79731 -5.55732 13.0658 10.0126 -7.62087 12.6725 
10.8771 -13.616 11.6072 9.73274 -4.18981 13.4977 10.4628 -10.626 12.2619 
10.7711 -12.4784 11.9908 10.191 -8.51579 12.7322 9.95117 -6.36678 13.1509 
9.67103 -2.12574 14.1498 11.1913 -15.1873 11.6464 11.0716 -14.1579 11.8434 
10.6604 -11.3339 12.4065 9.75629 -3.18257 14.0043 10.3675 -9.38721 12.7671 
9.89443 -5.05172 13.6197 10.1163 -7.22505 13.2247 10.9834 -13.1594 12.1791 
10.5542 -10.1753 12.8532 9.88571 -3.93537 14.097 10.0568 -5.92576 13.7071 
10.2867 -8.09941 13.2837 10.8666 -12.0484 12.5559 11.3671 -15.4809 11.9848 
9.81129 -2.2014 14.5675 9.7645 -1.18292 14.8003 11.2192 -14.1647 12.2538 
10.4625 -8.9533 13.3416 10.7546 -10.9217 12.9811 10.0311 -4.72747 14.196 
10.2224 -6.8036 13.78 11.0859 -12.8856 12.6563 9.91579 -2.84135 14.6448 
11.4136 -14.7208 12.4959 10.6507 -9.75888 13.4331 10.3916 -7.68078 13.8444 
10.1839 -5.56225 14.2739 10.9663 -11.7152 13.0903 10.0339 -3.55594 14.715 
9.91664 -1.49101 15.1625 9.86498 -0.360292 15.4079 11.5624 -15.7389 12.401 
11.2757 -13.5124 12.8104 10.5676 -8.53839 13.9144 10.8526 -10.5583 13.5375 
10.3435 -6.42127 14.3428 10.1682 -4.34194 14.7817 10.0328 -2.23025 15.2408 
11.1713 -12.4083 13.2354 11.4645 -14.0748 13.0098 9.96665 0.369454 15.9727 
10.0298 -0.889423 15.7262 11.6197 -14.9842 12.9374 10.7552 -9.37212 14.0007 
10.5093 -7.28838 14.4101 10.3148 -5.17562 14.8444 10.1592 -3.06055 15.2919 
11.0594 -11.3054 13.663 11.7572 -15.9268 12.8545 11.3785 -13.0753 13.3999 
10.1604 -1.79185 15.7868 10.6831 -8.14741 14.4833 10.2984 -3.91724 15.3446 
10.4706 -6.03702 14.9069 10.954 -10.1671 14.1081 11.2743 -12.041 13.8013 
10.1033 0.0705435 16.2833 11.6046 -13.976 13.4746 10.0907 1.1689 16.6151 
10.2958 -2.68871 15.8349 11.7893 -14.9699 13.4242 10.4473 -4.78945 15.4014 
10.6343 -6.90335 14.975 10.868 -8.9816 14.5723 10.1993 -0.702769 16.2983 
11.1648 -10.954 14.2223 11.9353 -16.0388 13.299 11.507 -12.9117 13.8874 
10.4395 -3.57599 15.8873 10.3169 -1.55162 16.33 10.6033 -5.66163 15.4663 
10.8068 -7.7599 15.0528 11.0662 -9.80608 14.6697 11.3921 -11.8079 14.3094 
11.7387 -13.8558 13.933 10.2389 0.574454 16.8551 10.2089 1.87016 17.194 
10.4494 -2.42411 16.3704 11.9391 -14.8462 13.9114 10.5896 -4.44655 15.9517 
10.7667 -6.52733 15.5393 10.9905 -8.61038 15.1378 10.3457 -0.364997 16.8415 
12.0976 -16.0923 13.7241 11.279 -10.6565 14.7534 11.6238 -12.6893 14.3738 
10.3378 1.51313 17.4525 10.5921 -3.27354 16.4334 10.4685 -1.28218 16.8565 
10.745 -5.30943 16.0244 10.939 -7.38897 15.6184 11.187 -9.4695 15.2186 
11.8466 -13.5669 14.4204 11.5004 -11.5023 14.8266 10.4101 0.702759 17.3913 
12.1235 -15.218 14.223 10.35 2.65001 17.854 10.605 -2.12289 16.9151 
10.7403 -4.12006 16.5057 10.9077 -6.16922 16.1019 11.1211 -8.25442 15.6963 
11.7198 -12.3162 14.894 10.5098 -0.213409 17.3569 11.3942 -10.3151 15.2955 
12.0425 -14.2255 14.5541 12.281 -16.0996 14.2264 10.4796 2.04341 18.0288 
10.7478 -2.95277 16.9857 10.8944 -4.96761 16.5839 10.6337 -1.01535 17.4075 
11.0788 -7.03102 16.18 11.9254 -13.0202 14.9928 11.3131 -9.11018 15.7736 
11.6084 -11.1271 15.3728 10.556 0.926029 17.8764 12.2706 -15.0103 14.7363 
10.4874 3.3612 18.4717 10.8954 -3.78521 17.0626 10.7679 -1.81369 17.4721 
11.0556 -5.818 16.6633 12.1307 -13.7436 15.0889 11.2582 -7.88909 16.2577 
11.5153 -9.93902 15.8535 11.8226 -11.8732 15.4674 10.6715 0.112267 17.9139 
12.4492 -16.0592 14.7081 10.6241 1.92675 18.3954 10.6239 2.99424 18.7381 
10.9086 -2.62333 17.5434 11.0482 -4.62233 17.1427 11.2246 -6.66913 16.7423 
10.7972 -0.670961 17.9702 11.4468 -8.73206 16.3375 12.0379 -12.6107 15.5624 
11.7266 -10.7232 15.9446 12.3168 -14.2756 15.2716 10.7295 1.19902 18.4436 
12.4728 -15.1437 15.2184 10.6457 4.12551 19.1568 11.0542 -3.44387 17.6204 
11.2081 -5.46259 17.2237 10.9309 -1.46312 18.0327 11.402 -7.51402 16.8226 
11.6466 -9.54741 16.4252 11.9452 -11.4876 16.0392 12.2451 -13.2447 15.7076 
10.8414 0.460617 18.4883 12.63 -15.968 15.25 10.7696 2.44852 18.9642 
11.206 -4.27306 17.7007 11.0704 -2.27021 18.1015 11.3757 -6.30226 17.3053 
11.5889 -8.34641 16.9078 10.7864 3.62328 19.3859 10.9641 -0.301826 18.5372 
12.4598 -14.0705 15.7773 11.8586 -10.3434 16.5172 12.1636 -12.1941 16.1597 
10.8823 1.69768 19.0187 12.6357 -14.9415 15.7714 10.8051 4.83075 19.815 
11.2157 -3.09188 18.1761 11.3648 -5.1052 17.7833 11.0957 -1.09143 18.5924 
11.5518 -7.13762 17.3897 11.7883 -9.16787 16.9971 12.0788 -11.1035 16.6222 
10.9983 0.924474 19.0549 12.3886 -12.9931 16.2447 10.9204 2.97306 19.5394 
12.7979 -15.8376 15.7822 11.3672 -3.91964 18.2567 11.2348 -1.90806 18.6548 
11.5314 -5.93743 17.8678 12.6038 -13.846 16.2977 11.7385 -7.97062 17.477 
11.124 0.129604 19.0942 10.9462 4.23137 20.0084 12.0005 -9.96973 17.0926 
12.3068 -11.9067 16.7087 11.0351 2.19423 19.5818 12.7908 -14.7463 16.3045 
10.9707 5.48929 20.4577 11.3804 -2.73509 18.7278 11.5256 -4.74955 18.3408 
11.2585 -0.700569 19.1386 11.7069 -6.77109 17.9543 11.1546 1.38455 19.6056 
11.9376 -8.79826 17.5672 12.533 -12.7468 16.7754 12.2243 -10.7901 17.1768 
11.0732 3.50047 20.1096 12.9559 -15.671 16.3122 11.4002 -1.53686 19.1993 
11.532 -3.56639 18.8088 11.285 0.524683 19.6274 11.6913 -5.58135 18.4269 
12.7482 -13.6254 16.8175 11.8933 -7.60741 18.042 11.1892 2.67115 20.1291 
12.1505 -9.63771 17.6497 11.1105 4.81109 20.6168 12.4526 -11.6325 17.2471 
12.9391 -14.5368 16.8329 11.4247 -0.326274 19.6733 11.5476 -2.37485 19.2733 
11.3147 1.74928 20.1196 11.6899 -4.39972 18.8938 11.1452 6.10533 21.088 
11.8662 -6.41688 18.5134 12.0923 -8.45647 18.1238 12.6773 -12.4995 17.302 
11.2301 3.98645 20.6612 12.3735 -10.4897 17.7205 13.105 -15.4705 16.8429 
11.3491 2.94779 20.6086 11.4525 0.882321 20.1508 11.5696 -1.17179 19.7375 
11.7001 -3.21444 19.3553 12.8904 -13.3898 17.3407 11.8548 -5.23493 18.9802 
12.052 -7.26408 18.596 12.304 -9.31735 18.196 12.5995 -11.3566 17.7801 
11.2837 5.31433 21.202 13.0813 -14.3014 17.3644 11.3891 4.08789 21.0776 
11.4854 2.07047 20.6318 11.5962 0.0356143 20.2044 11.7186 -2.01742 19.8141 
11.8576 -4.0551 19.4414 12.0285 -6.0768 19.0637 12.8206 -12.2375 17.8297 
11.3267 6.67547 21.694 12.2497 -8.12528 18.6702 12.5246 -10.1879 18.2577 
13.2456 -15.2384 17.3745 11.4471 5.09767 21.5271 11.5258 3.22865 21.1137 
11.6276 1.23402 20.678 11.743 -0.809069 20.273 13.0299 -13.1312 17.8699 
11.8713 -2.86505 19.898 12.021 -4.89658 19.5267 12.2128 -6.92962 19.1409 
12.7466 -11.0677 18.3122 12.4593 -8.99688 18.7352 11.4738 6.17191 21.9007 
13.2186 -14.0373 17.9029 11.6657 2.41464 21.1593 11.5821 4.34295 21.6021 
11.7723 0.40148 20.7369 11.8926 -1.65843 20.3521 12.0276 -3.71313 19.9844 
12.1928 -5.74203 19.6072 12.9629 -11.9552 18.3616 12.4086 -7.79476 19.2095 
12.6764 -9.8764 18.7925 11.5385 7.2738 22.3457 13.3777 -14.9789 17.9049 
11.6332 5.52381 22.0745 11.8079 1.60362 21.2109 11.716 3.57216 21.6517 
11.9192 -0.439268 20.8076 13.1671 -12.8476 18.4073 12.0446 -2.51238 20.4378 
12.1889 -4.559 20.0686 12.375 -6.59547 19.68 12.8934 -10.7625 18.8455 
12.6154 -8.66971 19.2704 11.6844 6.65628 22.5041 13.3517 -13.7429 18.4522 
11.7705 4.76414 22.1458 11.853 2.79034 21.6974 11.9518 0.781795 21.2705 
12.0683 -1.29106 20.8884 12.1989 -3.3662 20.5245 12.3584 -5.40544 20.1466 
13.1038 -11.6525 18.8981 12.5684 -7.45913 19.7452 12.8279 -9.55209 19.3258 
13.5 -14.6971 18.4291 11.7486 7.818 22.9434 11.8299 5.9531 22.6209 
11.905 3.98851 22.1912 11.9926 1.99318 21.7462 13.302 -12.5406 18.953 
12.0978 -0.0560528 21.3418 12.2188 -2.14975 20.9753 12.3576 -4.21545 20.608 
12.5381 -6.25598 20.2168 13.0387 -10.4402 19.3804 12.771 -8.33168 19.8035 
11.8921 7.13495 23.0691 13.4811 -13.4193 19.0155 11.9647 5.19018 22.6811 
12.041 3.20355 22.2324 12.1345 1.17812 21.8042 12.2455 -0.909653 21.4233 
12.3707 -3.00819 21.0629 12.5245 -5.0613 20.6846 13.2422 -11.3299 19.4383 
12.7281 -7.11426 20.2791 12.9772 -9.21077 19.8587 13.6105 -14.4007 18.9367 
11.9575 8.32348 23.499 12.0302 6.39676 23.1546 12.0979 4.41166 22.7216 
12.1791 2.40584 22.2777 12.2789 0.342598 21.8745 13.4333 -12.2133 19.5055 
12.3938 -1.77164 21.5113 12.5268 -3.85998 21.1462 12.7012 -5.90716 20.7525 
13.1799 -10.0943 19.916 12.9248 -7.97857 20.3362 13.707 -14.1004 19.4134 
13.1229 -8.8478 20.3925 12.8865 -6.756 20.8134 12.6907 -4.7048 21.2223 
12.543 -2.63366 21.6 12.1621 5.62425 23.2041 12.2323 3.62479 22.7593 
12.4242 -0.511035 21.9563 12.3195 1.59195 22.3338 12.0989 7.60322 23.6036 
13.374 -10.9745 19.9809 13.6073 -13.073 19.5947 13.076 -7.60712 20.8703 
13.3157 -9.7186 20.4537 12.8635 -5.54435 21.2894 12.696 -3.48819 21.6841 
12.5694 -1.37424 22.0452 13.5551 -11.8372 20.0631 12.4616 0.758213 22.4036 
12.3689 2.82826 22.8032 12.2939 4.84159 23.2409 12.2322 6.8442 23.6705 
12.1656 8.79647 24.021 13.7971 -13.7757 19.8934 13.2645 -8.46088 20.9288 
13.043 -6.38137 21.3496 13.4985 -10.5787 20.5282 12.8563 -4.33197 21.7604 
12.7154 -2.23944 22.1351 12.6035 -0.0925114 22.4859 12.5069 2.01737 22.8587 
12.4272 4.05394 23.2781 12.3622 6.06364 23.7132 13.72 -12.6456 20.1859 
12.306 8.06142 24.1136 13.2242 -7.21668 21.4076 13.4462 -9.31147 20.9959 
13.0246 -5.1646 21.828 12.8652 -3.09649 22.2212 12.7448 -0.956869 22.5752 
12.6454 1.19079 22.929 13.6679 -11.4086 20.6289 12.5619 3.26021 23.3234 
[...]
POINT_DATA 724
VECTORS velocity double
0.84845 -1.37309 1.41211 1.0202 -0.932843 1.51094 0.657003 -1.7182 1.31691 
1.15889 -0.445651 1.57982 0.515928 -1.94358 1.29724 0.683135 -1.66956 1.2485 
1.26619 0.0451287 1.61102 0.453082 -2.14741 1.37965 0.81807 -1.40467 1.29774 
0.536619 -1.88755 1.1839 0.940611 -1.07969 1.34977 1.06346 -0.671823 1.41202 
1.33421 0.450651 1.60216 0.448219 -2.04061 1.20913 0.484164 -2.39229 1.5536 
0.605395 -1.77001 1.10625 1.12038 -0.388666 1.39635 0.721715 -1.54477 1.11667 
0.431272 -2.19909 1.31954 0.46221 -1.96307 1.05466 1.3713 0.77757 1.55804 
0.603268 -2.73696 1.79378 0.852577 -1.19769 1.15825 1.18709 -0.0287191 1.38769 
0.497608 -2.43047 1.52122 0.399318 -2.08764 1.11574 0.50857 -1.87839 0.948884 
0.932014 -0.87467 1.14383 1.37998 1.02067 1.48124 0.597542 -1.7175 0.919817 
0.752506 -3.13207 2.01925 0.430384 -2.25021 1.29271 0.388354 -2.01858 0.931052 
1.22935 0.290224 1.3477 0.575402 -2.60893 1.62943 0.683045 -1.49567 0.906275 
1.00421 -0.513499 1.12499 0.408573 -1.96771 0.794008 0.368151 -2.11168 1.04995 
0.932683 -3.661 2.25865 1.36324 1.1898 1.37226 1.25803 0.597755 1.28928 
0.752257 -1.23223 0.87703 0.732575 -3.01122 1.88169 0.45925 -1.88245 0.715853 
0.457144 -2.3069 1.30901 0.328363 -2.0434 0.83175 1.07285 -0.108455 1.10054 
0.517795 -1.73879 0.662074 0.600087 -2.62193 1.57765 0.359797 -2.11925 1.01658 
0.317852 -2.02025 0.658376 0.830018 -0.884528 0.860283 1.33115 1.27963 1.2569 
0.913006 -3.54813 2.13584 1.12522 -4.32278 2.50068 1.19385 0.536802 1.13648 
0.335875 -1.99057 0.535315 0.581726 -1.51896 0.621091 0.473024 -2.31114 1.26959 
0.289253 -2.03683 0.761794 0.941638 -0.379959 0.884146 0.780973 -3.10195 1.85907 
1.21096 0.830589 1.06915 0.372346 -1.90882 0.44814 0.248426 -2.02695 0.552346 
0.359036 -2.10323 0.97436 0.671563 -1.17189 0.614795 0.641174 -2.68501 1.56147 
1.04346 -3.99617 2.28202 1.28966 -4.9739 2.70752 1.28 1.32817 1.11087 
1.00763 0.0121889 0.872278 0.236956 -2.03665 0.391427 0.429921 -1.73382 0.394937 
0.266525 -2.00509 0.705636 0.500565 -2.33456 1.25264 0.876634 -3.3947 1.94862 
0.75055 -0.79522 0.606572 1.04884 0.350978 0.835989 1.42272 -5.55334 2.88369 
1.14269 -4.39852 2.38839 1.15963 0.905188 0.91379 0.251936 -2.0083 0.275176 
0.200679 -1.99604 0.474283 0.37028 -2.08917 0.95137 0.701429 -2.83506 1.59789 
0.498932 -1.46715 0.366545 1.21629 1.33309 0.952408 0.825628 -0.387002 0.599275 
0.929388 -3.60115 1.976 0.163766 -2.02945 0.287252 0.53622 -2.39338 1.25887 
0.258943 -1.96281 0.672172 0.289286 -1.89862 0.198788 0.580473 -1.10644 0.358955 
1.31704 -5.15603 2.65873 0.948567 0.209317 0.650163 1.54446 -6.11345 3.06608 
0.732109 -2.94373 1.59198 1.0743 0.82111 0.736005 0.387692 -2.08952 0.941925 
0.172656 -1.94105 0.427171 0.155115 -2.04555 0.146313 1.12662 -4.40294 2.29859 
0.350845 -1.67677 0.160129 1.14949 1.30713 0.802077 0.704464 -0.571343 0.401525 
0.554491 -2.44357 1.2411 0.924344 -3.64924 1.91283 0.261413 -1.92505 0.656066 
0.114166 -1.98156 0.223554 0.17551 -1.98897 0.0507174 0.450434 -1.29464 0.169265 
0.845236 0.0608373 0.474303 1.36238 -5.42712 2.71539 1.62388 -6.48345 3.21968 
0.73074 -2.99649 1.54214 0.976051 0.680131 0.560784 0.399439 -2.1022 0.926889 
0.160001 -1.87864 0.406134 0.0848929 -2.0271 0.0640679 1.13173 -4.52524 2.27661 
1.0831 1.26328 0.66565 0.231675 -1.80678 0.00451133 0.577634 -0.774458 0.218428 
1.49098 -6.0195 2.97427 0.558093 -2.49652 1.20902 0.913793 -3.71563 1.86197 
0.266753 -1.90398 0.64779 0.0848186 -1.91103 0.194617 0.0886539 -2.01514 -0.0478325 
0.711615 -0.192837 0.28848 0.320252 -1.47968 0.00564494 1.30055 -5.29197 2.59901 
0.956201 0.833681 0.484615 1.67839 -6.72583 3.39397 0.724633 -3.07925 1.50227 
0.405171 -2.13867 0.911064 0.156868 -1.82682 0.403348 0.0383117 -1.96946 0.0244517 
0.428764 -1.04185 0.0411929 1.081 -4.45695 2.17321 0.127037 -1.89113 -0.108723 
0.785651 0.225843 0.311869 1.00251 1.1949 0.51664 1.50138 -6.1326 3.05456 
0.556108 -2.5813 1.18329 0.27221 -1.91306 0.647089 0.886197 -3.76178 1.80025 
0.0708719 -1.83764 0.194014 0.525305 -0.60059 0.0796813 0.023936 -1.99014 -0.0989342 
0.195012 -1.6378 -0.124023 1.25843 -5.23862 2.54378 0.848419 0.663508 0.326576 
1.69968 -6.79724 3.57325 0.407049 -2.2135 0.901955 0.707736 -3.17203 1.46244 
0.159656 -1.80264 0.415927 0.623743 -0.128777 0.128043 0.0114795 -1.88944 0.0231906 
0.0422411 -1.91839 -0.173961 0.277586 -1.29017 -0.109304 1.05189 -4.50067 2.13665 
0.923329 1.1174 0.388338 1.39027 -5.79521 2.88154 1.56176 -6.38068 3.33515 
0.546733 -2.69439 1.16181 0.277117 -1.96578 0.655745 0.0686089 -1.78089 0.217424 
0.862294 -3.85074 1.76955 -0.0186537 -1.92409 -0.105473 0.373486 -0.864783 -0.0717923 
0.0882619 -1.73179 -0.205625 0.670324 0.196517 0.13887 1.2004 -5.15195 2.49036 
0.780092 0.681268 0.22197 1.70251 -6.75676 3.80979 0.404255 -2.33003 0.899253 
0.166085 -1.82254 0.441866 0.68896 -3.29382 1.44017 0.000984508 -1.80885 0.0531023 
-0.0187924 -1.88807 -0.190531 0.15812 -1.43243 -0.202064 0.45074 -0.463947 -0.0383931 
1.01346 -4.52211 2.1112 0.832039 1.02071 0.262993 1.38107 -5.82787 2.98662 
0.280024 -2.06961 0.672211 0.533967 -2.84022 1.15209 0.0741868 -1.7618 0.258351 
-0.0411758 -1.83742 -0.0750799 1.54986 -6.34371 3.51889 0.833518 -3.93542 1.75402 
0.56205 0.0515558 0.0281862 0.0102445 -1.74815 -0.234789 0.236065 -1.06578 -0.176948 
1.18665 -5.21021 2.5652 0.669937 0.536766 0.103709 1.70062 -6.66443 4.08164 
0.397922 -2.48775 0.905004 0.173427 -1.89856 0.477058 0.666717 -3.42323 1.43162 
0.00230201 -1.75308 0.104526 -0.0560563 -1.81712 -0.166217 0.0626534 -1.5012 -0.243435 
0.995401 -4.60073 2.15642 0.340262 -0.59526 -0.125182 1.36557 -5.81921 3.12268 
0.740254 0.919189 0.160546 0.280507 -2.22561 0.695948 0.517311 -3.00216 1.15182 
0.0837083 -1.79785 0.309927 0.455214 -0.0805079 -0.0570692 -0.0480539 -1.75759 -0.0196166 
0.812973 -4.03761 1.77795 1.54072 -6.28998 3.74329 -0.0431324 -1.70954 -0.219714 
0.142557 -1.1388 -0.221838 1.16985 -5.23515 2.66824 0.566525 0.414037 0.0169931 
1.70682 -6.57085 4.37569 0.388274 -2.67576 0.91851 0.179957 -2.0352 0.518803 
0.644746 -3.54985 1.44122 0.0106968 -1.74432 0.167964 0.975095 -4.64791 2.2237 
-0.0743518 -1.73218 -0.112398 0.244108 -0.684161 -0.175275 -0.00106918 -1.49228 -0.239935 
1.35233 -5.8 3.2949 0.646842 0.813866 0.0788311 0.498997 -3.16714 1.16276 
0.278468 -2.42576 0.726156 0.785568 -4.0944 1.80578 0.0943522 -1.89786 0.367382 
0.357293 -0.182063 -0.112306 -0.0443212 -1.7094 0.0504443 1.15109 -5.23554 2.79125 
-0.0740637 -1.63769 -0.174745 1.53758 -6.23622 3.9871 0.0689717 -1.1612 -0.229457 
0.466836 0.30347 -0.0441078 0.618422 -3.64677 1.45675 0.376599 -2.87913 0.940157 
0.939949 -4.62789 2.2701 0.184995 -2.22765 0.565751 1.72365 -6.49358 4.65486 
0.0227672 -1.7958 0.237347 -0.0790075 -1.65938 -0.0432286 0.161683 -0.736522 -0.193868 
1.33825 -5.76774 3.4709 -0.0450906 -1.44596 -0.206264 0.552012 0.706665 0.0166299 
1.10263 -5.13974 2.82913 0.750922 -4.11012 1.83187 0.477986 -3.31572 1.18025 
0.274681 -2.65564 0.762853 0.266735 -0.262691 -0.141645 0.104948 -2.06089 0.428844 
-0.0344087 -1.70965 0.125963 -0.0897 -1.55945 -0.111346 0.0116868 -1.1487 -0.208843 
1.5326 -6.17415 4.1935 0.370145 0.201524 -0.0830279 1.26717 -5.59355 3.43531 
0.895976 -4.57499 2.30467 0.588984 -3.71362 1.47741 0.363124 -3.07912 0.967995 
0.18892 -2.4636 0.617928 0.0363941 -1.91044 0.309056 0.0911817 -0.762127 -0.187142 
1.74393 -6.43039 4.86591 -0.0746454 -1.61748 0.0333267 -0.0738628 -1.38175 -0.152724 
0.457056 0.600243 -0.0273301 1.41331 -5.91539 3.9818 1.05104 -5.04115 2.86348 
0.714062 -4.10539 1.86314 0.455525 -3.43922 1.20372 0.184012 -0.325348 -0.14861 
0.269731 -2.89666 0.805302 0.115332 -2.27756 0.493987 -0.0206828 -1.76648 0.203395 
-0.0318178 -1.11429 -0.168084 -0.0942976 -1.49406 -0.0385535 1.59451 -6.20757 4.54531 
0.277802 0.109385 -0.102126 0.854489 -4.52814 2.35088 1.20897 -5.46192 3.45396 
0.559069 -3.75603 1.50502 0.34889 -3.26036 1.00114 0.192398 -2.72535 0.675402 
0.0511232 -2.0845 0.383036 0.0323267 -0.766719 -0.160845 -0.0642263 -1.6196 0.111959 
-0.0905722 -1.31576 -0.0879912 1.75498 -6.36181 4.96626 0.364387 0.498193 -0.0546519 
1.39823 -5.85505 4.08533 0.679117 -4.09488 1.90373 1.00767 -4.97179 2.91675 
0.432823 -3.53196 1.23207 0.11048 -0.370629 -0.137033 0.264493 -3.12927 0.852669 
0.126038 -2.53379 0.563649 -0.0043855 -1.88221 0.281507 -0.0630487 -1.06872 -0.11485 
-0.0908781 -1.45685 0.0369379 1.58231 -6.12564 4.59385 0.191753 0.0288779 -0.104082 
1.18671 -5.41866 3.54339 0.817277 -4.49436 2.40414 0.529794 -3.77743 1.53752 
0.334291 -3.40843 1.03699 0.19609 -2.99253 0.737798 0.0669384 -2.30843 0.459988 
-0.0146893 -0.755547 -0.121215 -0.0496615 -1.67375 0.189874 -0.0976705 -1.26242 -0.0194927 
0.277172 0.403922 -0.0676759 1.73712 -6.28897 4.88565 1.37798 -5.78357 4.1185 
0.980039 -4.94491 2.98955 0.645705 -4.08233 1.94586 0.0477368 -0.399233 -0.11164 
0.409566 -3.58933 1.26082 0.259003 -3.33282 0.901978 0.137399 -2.8105 0.637923 
0.0138629 -2.05348 0.360592 -0.0835246 -1.02303 -0.0564041 -0.0816357 -1.45971 0.110882 
1.55699 -6.03827 4.52141 0.114395 -0.0378529 -0.0921979 1.16271 -5.36815 3.5808 
0.786404 -4.47934 2.45828 0.499814 -3.78018 1.56693 0.318432 -3.511 1.07009 
0.199794 -3.24148 0.802507 0.0838769 -2.56714 0.540666 -0.0502362 -0.735622 -0.0749312 
-0.0320807 -1.78258 0.266466 -0.0972806 -1.23493 0.047528 0.198924 0.320281 -0.069587 
1.68046 -6.21145 4.62264 1.35053 -5.70049 4.06662 0.951477 -4.91435 3.02344 
0.613385 -4.07237 1.98076 0.384012 -3.61039 1.28213 -0.00323029 -0.413825 -0.0782225 
0.252023 -3.48802 0.947392 0.149194 -3.08418 0.715285 0.0337745 -2.27031 0.441673 
-0.0950261 -0.989991 0.00138211 -0.068025 -1.5107 0.181756 0.132436 0.248757 -0.0642941 
-0.0909835 -1.24426 0.110477 -0.0120354 -1.94334 0.343068 0.101733 -2.83984 0.624912 
0.202253 -3.44785 0.864167 1.13347 -5.30218 3.54946 0.753748 -4.46259 2.48174 
0.299193 -3.56113 1.09227 0.467642 -3.76988 1.58413 1.50738 -5.94028 4.31106 
-0.0757818 -0.71924 -0.0278844 0.0482029 -0.0882201 -0.0708905 -0.0508838 -1.61326 0.250498 
-0.0990303 -0.980899 0.0550546 0.0551869 -2.51742 0.526136 0.160333 -3.32883 0.791801 
0.24118 -3.58032 0.980284 -0.0439967 -0.429087 -0.0424582 0.353902 -3.60027 1.2868 
0.577623 -4.05959 1.98935 0.918742 -4.86968 3.00227 1.30786 -5.59999 3.90973 
1.5818 -6.13416 4.19364 0.0733427 0.183344 -0.0545672 -0.0798311 -1.29818 0.169418 
0.0102064 -2.14682 0.421973 -0.0923893 -0.715635 0.0159549 0.119727 -3.10158 0.710749 
0.201039 -3.59031 0.914327 0.273799 -3.56027 1.09395 0.43004 -3.7506 1.57597 
0.716604 -4.43563 2.46021 1.09403 -5.21366 3.43452 -0.00876186 -0.143994 -0.0457479 
1.4277 -5.83687 3.96281 -0.0306784 -1.76462 0.31974 -0.0966127 -1.00504 0.103615 
0.077595 -2.77333 0.614114 0.168675 -3.51877 0.860341 0.223167 -3.60463 0.989989 
0.316536 -3.56876 1.26497 -0.0745471 -0.449118 -0.00855592 0.536108 -4.04056 1.95932 
0.878487 -4.80178 2.91345 1.24527 -5.48664 3.64261 1.44353 -6.06029 3.62773 
0.018892 0.119273 -0.0420821 -0.0644668 -1.39964 0.226748 0.0343118 -2.37692 0.505244 
-0.100831 -0.731691 0.0541113 0.13621 -3.32582 0.793417 0.192684 -3.6562 0.942034 
0.238994 -3.51923 1.06482 0.385544 -3.72757 1.53435 0.672905 -4.38976 2.38316 
1.04127 -5.10391 3.23038 -0.0507132 -0.186277 -0.0227153 1.31563 -5.73617 3.48411 
-0.00769748 -1.95491 0.392876 -0.0886355 -1.06789 0.148208 0.0998602 -3.01278 0.703512 
0.170945 -3.63434 0.910657 0.194257 -3.56853 0.965501 -0.0943878 -0.47132 0.018696 
0.269611 -3.52714 1.20749 0.828461 -4.70691 2.75047 0.489633 -4.01456 1.88801 
1.16126 -5.37226 3.27045 -0.0276979 0.0587702 -0.0302469 1.27054 -5.98614 2.95659 
-0.0453385 -1.54438 0.286218 0.0595659 -2.61157 0.593367 -0.102152 -0.770977 0.0857514 
0.148362 -3.48785 0.864403 0.1731 -3.64537 0.93503 0.192114 -3.45502 0.996445 
0.333204 -3.70084 1.45153 0.971862 -4.97747 2.93631 0.626873 -4.32857 2.25737 
-0.0808882 -0.223637 -0.00584446 1.16929 -5.64627 2.8778 0.0176005 -2.16677 0.472536 
-0.0758483 -1.16936 0.192148 0.119803 -3.20908 0.788525 0.162912 -3.66634 0.929873 
0.151243 -3.49019 0.89756 -0.10567 -0.503458 0.0382226 0.212154 -3.48414 1.10871 
0.437692 -3.97188 1.7684 0.778921 -4.6084 2.53079 1.05481 -5.26104 2.813 
-0.0650204 0.00263507 -0.0229906 -0.0228158 -1.72095 0.35203 0.084447 -2.82457 0.683596 
1.06851 -5.89999 2.20993 -0.0974943 -0.839098 0.114032 0.152194 -3.57047 0.911589 
0.138347 -3.57194 0.882156 0.131877 -3.38501 0.883834 0.273438 -3.66636 1.3247 
0.57697 -4.24362 2.07584 0.906141 -4.90267 2.56567 -0.101537 -0.261992 0.00296475 
0.986865 -5.41155 2.29271 -0.0585792 -1.30567 0.240885 0.0442677 -2.37712 0.559002 
0.13399 -3.33902 0.859031 0.14005 -3.62015 0.90472 -0.109868 -0.552515 0.0521074 
0.0922204 -3.39298 0.780649 0.144609 -3.44225 0.96675 0.381417 -3.90576 1.60158 
0.724627 -4.51029 2.24874 -0.0931867 -0.0499638 -0.0234004 0.00260957 -1.912 0.427282 
0.839742 -4.89775 2.15974 -0.0873295 -0.938045 0.144614 0.106248 -2.98954 0.768675 
0.142967 -3.56893 0.920682 0.878659 -5.80422 1.53706 0.0856159 -3.45999 0.775712 
0.5222 -4.13686 1.84112 0.0586621 -3.32071 0.726268 0.207257 -3.61586 1.15422 
-0.114179 -0.307072 0.00451092 -0.0370832 -1.46597 0.299566 0.825307 -5.30679 1.68178 
0.0703574 -2.55951 0.648371 0.656778 -4.41086 1.90849 0.137927 -3.38862 0.901282 
-0.107673 -0.623492 0.0654244 0.0985784 -3.51554 0.824583 0.319088 -3.80887 1.38645 
0.0172134 -3.29751 0.614239 0.0685397 -3.3975 0.783604 -0.112983 -0.102239 -0.0320779 
0.711061 -4.75739 1.66424 0.0296028 -2.09331 0.51119 -0.0718103 -1.06356 0.18396 
0.121006 -3.0849 0.836585 0.452624 -4.00076 1.54651 0.116299 -3.49457 0.878706 
0.135481 -3.54145 0.943129 0.0140219 -3.33674 0.613477 -0.0253639 -3.26588 0.527934 
0.687193 -5.67802 0.884519 -0.119532 -0.365468 0.00319526 0.550091 -4.24542 1.49138 
-0.0121775 -1.63115 0.370412 0.092521 -2.6872 0.731028 0.657571 -5.16518 1.08819 
0.247456 -3.67908 1.1234 0.127005 -3.3584 0.900941 -0.0992729 -0.716993 0.0851362 
0.0366402 -3.38169 0.684611 -0.0128669 -3.34377 0.56689 -0.0718217 -3.2171 0.402885 
-0.12489 -0.160783 -0.0452984 0.574245 -4.60201 1.16067 -0.0513984 -1.20271 0.236662 
0.362508 -3.82971 1.19383 0.0555108 -2.23688 0.597246 0.124186 -3.09973 0.872673 
0.069325 -3.37305 0.777501 0.0600466 -3.44053 0.69914 -0.074798 -3.22552 0.399969 
-0.116186 -3.21836 0.298117 0.505036 -5.51212 0.289559 -0.117462 -0.442856 0.00700038 
0.436572 -4.07538 1.05549 0.0142707 -1.77642 0.450581 0.106187 -2.73592 0.79173 
-0.0851204 -0.824264 0.116873 0.168529 -3.52286 0.823094 0.491955 -5.00033 0.522484 
0.0978247 -3.26806 0.847655 -0.0451847 -3.24824 0.486959 -0.0943467 -3.27585 0.329533 
-0.170527 -3.1567 0.15714 0.437953 -4.44691 0.666456 -0.128248 -0.236982 -0.0533227 
0.269086 -3.6535 0.820672 -0.0268862 -1.34015 0.304654 0.074977 -2.30014 0.667353 
0.112474 -3.04847 0.866242 0.00145815 -3.23557 0.615935 -0.0109525 -3.316 0.440942 
-0.177022 -3.14035 0.145348 -0.208004 -3.17086 0.0505765 0.338459 -5.29586 -0.227218 
-0.107151 -0.541509 0.02617 0.321926 -3.90646 0.618758 -0.0650008 -0.944632 0.167519 
0.108897 -2.72021 0.822108 0.0344347 -1.82908 0.513736 0.0487658 -3.14498 0.736715 
0.0995392 -3.3607 0.515322 -0.143891 -3.13775 0.240368 -0.273005 -3.11289 -0.108517 
-0.16993 -3.18603 0.0865581 0.331394 -4.8097 -0.0103505 0.310055 -4.28399 0.216358 
-0.120381 -0.347349 -0.0391123 0.187205 -3.51056 0.429395 0.087247 -2.30669 0.718601 
0.0837939 -2.95125 0.810233 -0.0858487 -3.10948 0.398732 -0.0119958 -1.348 0.341762 
-0.286867 -3.08453 -0.135438 -0.0724959 -3.16905 0.184493 -0.294071 -3.113 -0.198335 
0.191832 -5.01666 -0.650819 -0.0734096 -0.791542 0.122465 0.217194 -3.84314 0.126736 
0.0983971 -2.64814 0.813082 -0.0200406 -3.01829 0.568881 0.050268 -1.83592 0.566207 
-0.254749 -3.06113 -0.042242 0.0373932 -3.19769 0.210183 -0.372298 -3.07539 -0.37696 
-0.232302 -3.06875 -0.143773 0.202825 -4.42519 -0.324277 -0.101048 -0.483386 0.00935218 
-0.00258704 -1.30855 0.362728 0.037473 -2.83763 0.702722 0.109589 -3.38677 0.0566234 
0.0890936 -2.24267 0.736468 -0.189137 -3.01253 0.135783 -0.397606 -3.05128 -0.425511 
-0.367623 -3.03366 -0.431037 -0.118505 -3.00527 -0.0552041 0.0850022 -4.71747 -0.929048 
-0.0479077 -0.899976 0.193003 0.127999 -3.79833 -0.274878 0.0744175 -2.55532 0.764249 
0.0540104 -1.73711 0.575161 -0.107252 -2.90958 0.348341 -0.37098 -3.01767 -0.343288 
-0.461066 -3.03013 -0.630018 -0.0102138 -3.05396 -0.0812929 -0.278399 -2.92399 -0.348669 
0.0947951 -4.21857 -0.665016 0.0832062 -2.1728 0.732307 -0.0277166 -2.73075 0.540999 
-0.0669557 -0.66557 0.108518 0.0463011 -3.34008 -0.312402 -0.302999 -2.95107 -0.158405 
-0.500867 -3.02678 -0.703928 -0.422526 -2.9244 -0.630973 0.00524783 -1.22277 0.375589 
-0.152438 -2.83626 -0.270168 -0.00228757 -4.35245 -1.11995 0.0300919 -3.78783 -0.724441 
0.0630734 -1.73015 0.612349 0.0333854 -2.46918 0.667825 -0.210588 -2.83112 0.0815826 
-0.484153 -2.9966 -0.641384 -0.532478 -2.96405 -0.849272 -0.05235 -2.925 -0.338282 
-0.304764 -2.75478 -0.516879 0.0640495 -2.1385 0.698581 -0.0288332 -0.844741 0.2302 
-0.113901 -2.64685 0.319935 -0.0193204 -3.21472 -0.595543 -0.419098 -2.9189 -0.462302 
-0.589415 -2.99499 -0.952224 -0.457864 -2.7858 -0.789612 0.0323245 -1.32337 0.470179 
-0.171206 -2.66997 -0.453786 -0.0578347 -4.00099 -1.20616 0.0651892 -1.76876 0.641553 
-0.040175 -3.55241 -0.929967 -0.032924 -2.40199 0.502253 -0.320631 -2.77988 -0.206971 
-0.583373 -2.86935 -1.02428 -0.320582 -2.5759 -0.652145 -0.586773 -2.9817 -0.918008 
-0.0873845 -2.80612 -0.574835 0.0204943 -2.10952 0.598467 0.0124411 -1.04043 0.373948 
-0.210342 -2.57619 0.0656916 -0.193548 -2.49889 -0.604243 -0.477473 -2.62424 -0.908797 
-0.658027 -2.9405 -1.15761 -0.528442 -2.9022 -0.753425 0.0500754 -1.43672 0.549662 
-0.0764582 -3.12051 -0.879943 -0.0993696 -3.58866 -1.22621 0.0453163 -1.78941 0.609523 
-0.108681 -2.3134 0.300391 -0.12371 -2.62382 -0.718935 -0.333036 -2.39063 -0.759663 
-0.610724 -2.73742 -1.14729 -0.426926 -2.74597 -0.49084 -0.671888 -2.95503 -1.15652 
-0.0305959 -1.99884 0.457143 0.0389104 -1.23202 0.488188 -0.121874 -3.2171 -1.19231 
-0.112297 -2.83742 -0.938193 -0.216515 -2.30713 -0.713661 -0.303219 -2.51424 -0.186253 
-0.475386 -2.42967 -0.978154 -0.701571 -2.8503 -1.30674 -0.624133 -2.88488 -1.01537 
0.0318585 -1.60781 0.548359 -0.154954 -2.38157 -0.792056 -0.175446 -2.2108 0.110933 
-0.612134 -2.56539 -1.21027 -0.322373 -2.17876 -0.81684 -0.527242 -2.72428 -0.764879 
-0.731936 -2.8988 -1.33761 -0.0537973 -1.82575 0.368804 -0.135291 -2.82048 -1.11752 
-0.136167 -2.51849 -0.933408 0.0234196 -1.39679 0.488516 -0.40031 -2.48219 -0.45349 
-0.718749 -2.72364 -1.39247 -0.450447 -2.20722 -0.991597 -0.211335 -2.10044 -0.778788 
-0.697595 -2.84409 -1.22754 -0.258421 -2.17571 -0.118962 -0.596491 -2.37551 -1.22469 
-0.291777 -1.95697 -0.822581 -0.763687 -2.80081 -1.45336 -0.157917 -2.17286 -0.855628 
-0.607692 -2.68383 -0.995293 -0.149021 -1.87275 0.121892 -0.0404226 -1.53924 0.349435 
-0.141866 -2.41012 -1.0096 -0.425553 -2.00002 -0.98013 -0.709707 -2.55589 -1.41602 
-0.47628 -2.42532 -0.674867 -0.742399 -2.76097 -1.37466 -0.188283 -1.90091 -0.796302 
-0.327728 -2.09779 -0.32681 -0.556575 -2.1466 -1.18191 -0.280197 -1.76411 -0.813206 
-0.145229 -2.0528 -0.898391 -0.765583 -2.6532 -1.50017 -0.173937 -1.72723 0.0220098 
-0.658481 -2.6042 -1.15754 -0.671223 -2.33676 -1.37288 -0.378305 -1.75711 -0.917197 
-0.194538 -1.67751 -0.761763 -0.508862 -2.30725 -0.793948 -0.755646 -2.62376 -1.45028 
-0.150196 -1.75424 -0.798642 -0.346448 -1.94479 -0.415844 -0.489721 -1.87162 -1.07852 
-0.24475 -1.52759 -0.755379 -0.733095 -2.43918 -1.47214 -0.655046 -2.45975 -1.18302 
-0.60294 -2.06288 -1.26336 -0.164421 -1.47082 -0.706407 -0.311134 -1.4848 -0.807146 
-0.522714 -2.16008 -0.872135 -0.726003 -2.46748 -1.39976 -0.727619 -2.36728 -1.45558 
-0.403509 -1.57062 -0.929516 -0.645031 -2.09375 -1.3307 -0.195285 -1.2886 -0.663629 
-0.654167 -2.29323 -1.22786 -0.504662 -1.73487 -1.08928 -0.254542 -1.23119 -0.693811 