# vtk DataFile Version 3.0
vtk output
ASCII
DATASET POLYDATA
POINTS 724 float
10.2866 -10.7733 11.3766 10.5319 -11.664 11.2806 10.0465 -9.6769 11.6164 
10.7705 -12.397 11.2865 9.87574 -8.58784 11.9821 10.232 -10.1171 11.8334 
11.0115 -13.0343 11.3741 9.78124 -7.51572 12.4774 10.4548 -10.9403 11.7621 
10.0734 -9.17775 12.1635 10.6702 -11.6218 11.7567 10.8767 -12.2449 11.7515 
11.229 -13.5498 11.5219 9.95342 -8.21167 12.5506 9.76924 -6.51454 13.0786 
10.3193 -10.0234 12.2383 11.0668 -12.658 11.902 10.5609 -10.8672 12.2146 
9.89793 -7.25055 13.0442 10.156 -8.98282 12.6288 11.4365 -13.9964 11.7213 
9.8344 -5.57515 13.7851 10.8135 -11.642 12.2218 11.2703 -13.118 12.0378 
9.89921 -6.29366 13.6165 10.0516 -7.92317 13.0967 10.3798 -9.8148 12.6699 
11.0509 -12.2076 12.3667 11.6339 -14.3826 11.9664 10.6117 -10.6437 12.657 
9.93774 -4.85868 14.4305 10.0133 -6.84969 13.6602 10.2303 -8.6999 13.1218 
11.4704 -13.5289 12.2223 10.0025 -5.71569 14.2319 10.8408 -11.3213 12.7132 
11.282 -12.7205 12.5245 10.4298 -9.52436 13.1296 10.1474 -7.56029 13.6495 
10.0783 -4.18194 15.1341 11.8267 -14.7223 12.2613 11.6721 -13.9429 12.4297 
11.072 -11.891 12.8459 10.0883 -4.9403 14.8471 10.6406 -10.3091 13.1371 
10.1203 -6.41205 14.2306 10.3045 -8.34334 13.6354 11.5185 -13.2304 12.6971 
10.8626 -10.9916 13.2046 10.1682 -5.50411 14.826 10.2473 -7.15872 14.2 
10.4818 -9.15796 13.6249 11.3111 -12.4423 12.9857 11.9867 -14.9727 12.5499 
10.2149 -4.2312 15.5187 10.246 -3.53573 15.8846 11.7936 -13.9714 12.7769 
10.6784 -9.94771 13.6354 11.0971 -11.6084 13.3172 10.2651 -6.12595 14.8044 
10.39 -7.94969 14.1668 11.5715 -13.0626 13.0893 10.2713 -4.67768 15.4967 
11.9893 -14.4032 12.9868 10.8944 -10.6687 13.6945 10.5514 -8.76981 14.143 
10.374 -6.82155 14.7607 11.3488 -12.2287 13.4222 10.3368 -5.19372 15.4549 
10.3728 -3.73197 16.18 10.4081 -2.97394 16.5731 12.1584 -15.2034 12.9044 
11.7822 -13.5266 13.2321 10.7347 -9.57856 14.1465 11.1305 -11.3481 13.7795 
10.4992 -7.58242 14.7141 10.4165 -5.79036 15.3991 10.4297 -4.22703 16.1418 
11.5841 -12.7516 13.5595 11.981 -13.9492 13.4107 10.5584 -2.45523 17.2031 
10.5261 -3.30491 16.7918 12.1711 -14.6301 13.3624 10.9418 -10.3468 14.1867 
10.6438 -8.38937 14.6797 10.5111 -6.46412 15.3353 10.4909 -4.80368 16.0625 
11.371 -11.9486 13.8932 12.3244 -15.3825 13.2915 11.8161 -13.2451 13.7144 
10.5825 -3.89854 16.7111 10.8118 -9.20809 14.6708 10.5656 -5.43063 15.9804 
10.6223 -7.20894 15.2746 11.1677 -11.0451 14.2647 11.6192 -12.512 14.0248 
10.6634 -2.62644 17.4464 12.081 -13.9027 13.7999 10.7272 -1.84002 17.9107 
10.6451 -4.50755 16.6177 12.3045 -14.6457 13.7756 10.654 -6.1125 15.9027 
10.7532 -8.00433 15.2308 11.005 -9.99546 14.6996 10.6961 -3.13627 17.3442 
11.4117 -11.6957 14.3635 12.4725 -15.4999 13.6729 11.8962 -13.1518 14.1208 
10.7193 -5.14104 16.5304 10.7434 -3.69591 17.2434 10.7572 -6.8453 15.8388 
10.9075 -8.82121 15.2143 11.2239 -10.7424 14.7578 11.6821 -12.3581 14.4519 
12.1731 -13.8378 14.1859 10.8194 -2.21839 18.0438 10.8772 -1.24236 18.5452 
10.8043 -4.28506 17.1466 12.4136 -14.5759 14.1903 10.8053 -5.80347 16.46 
10.8784 -7.62341 15.7939 11.0884 -9.63675 15.2265 10.8502 -2.85367 17.8886 
12.6051 -15.5678 14.0405 11.4701 -11.4655 14.8233 11.9608 -13.0099 14.5302 
10.9666 -1.45826 18.7304 10.8789 -4.88312 17.0759 10.8974 -3.46574 17.7613 
10.9035 -6.50866 16.4044 11.0217 -8.43764 15.7705 11.298 -10.4359 15.2579 
12.2277 -13.6474 14.5966 11.7324 -12.1367 14.8958 10.9768 -2.04729 18.5501 
12.5838 -14.8799 14.4664 11.0465 -0.503898 19.2737 10.9639 -4.03295 17.6864 
10.963 -5.51479 17.0184 11.0178 -7.26241 16.3634 11.1905 -9.27244 15.7658 
11.994 -12.7487 14.9735 11.0031 -2.68389 18.3767 11.5318 -11.1773 15.3091 
12.4436 -14.1357 14.7322 12.7523 -15.6003 14.4792 11.1207 -0.943024 19.3426 
11.0396 -4.61395 17.6276 11.0582 -6.19106 16.9729 11.0591 -3.22464 18.2984 
11.1521 -8.06288 16.336 12.232 -13.2647 15.0815 11.3856 -10.0843 15.7845 
11.7803 -11.8416 15.3793 11.1153 -1.80313 19.0244 12.6855 -14.7394 14.9124 
11.2059 0.230688 19.9715 11.1234 -5.22776 17.5797 11.1265 -3.76963 18.2361 
11.1678 -6.91766 16.9372 12.4674 -13.7946 15.1898 11.3088 -8.88632 16.3265 
11.605 -10.8328 15.83 12.0287 -12.4173 15.4768 11.1618 -2.37469 18.9287 
12.8848 -15.5901 14.9052 11.2353 -0.952134 19.662 11.3011 -0.0188743 20.1657 
11.202 -4.33991 18.1833 11.2172 -5.88362 17.5418 11.295 -7.68998 16.9129 
11.2208 -2.91691 18.8569 11.4904 -9.69365 16.3411 12.2786 -12.9661 15.5821 
11.8422 -11.496 15.906 12.6635 -14.1938 15.3703 11.2781 -1.49261 19.584 
12.854 -14.8619 15.3462 11.3883 1.05798 20.7755 11.2853 -4.94403 18.1412 
11.3244 -6.58476 17.5134 11.2885 -3.47048 18.7939 11.4427 -8.48822 16.9059 
11.6974 -10.4469 16.3865 12.0921 -12.1039 15.9998 12.5093 -13.4318 15.7346 
11.3263 -2.02852 19.5023 13.0245 -15.5376 15.3913 11.3901 -0.413018 20.2823 
11.3791 -5.58725 18.1096 11.3639 -4.04875 18.7413 11.4477 -7.32706 17.497 
11.6139 -9.28321 16.9227 11.4797 0.659484 20.908 11.3842 -2.57654 19.4243 
12.7589 -14.0463 15.8251 11.9282 -11.1412 16.4564 12.3399 -12.6404 16.1265 
11.4369 -0.993414 20.1972 12.9686 -14.7174 15.8455 11.5742 1.82201 21.5806 
11.448 -4.65927 18.7007 11.4857 -6.26916 18.0898 11.4509 -3.14717 19.3543 
11.5897 -8.09823 17.4971 11.8116 -10.0513 16.9638 12.1735 -11.764 16.555 
11.486 -1.57983 20.0942 12.6014 -13.2362 16.228 11.5514 0.142059 20.9277 
13.1511 -15.4484 15.8766 11.5428 -5.30138 18.675 11.5263 -3.74862 19.2958 
11.6072 -6.98724 18.0827 12.8545 -13.8755 16.304 11.754 -8.88282 17.5158 
11.5443 -2.17559 19.9968 11.6592 1.30718 21.65 12.0345 -10.7667 17.0308 
12.4345 -12.3919 16.6476 11.5969 -0.482832 20.8135 13.0774 -14.5715 16.3373 
11.7686 2.51421 22.3848 11.6118 -4.37535 19.2566 11.6502 -5.97484 18.6631 
11.6113 -2.79948 19.9078 11.7461 -7.73701 18.0897 11.6456 -1.12031 20.6815 
11.9437 -9.65611 17.5548 12.6985 -13.0305 16.7301 12.2801 -11.4595 17.103 
11.7179 0.694943 21.5885 13.2671 -15.3249 16.3681 11.6888 -3.43647 19.845 
11.7084 -5.02709 19.2359 11.7034 -1.79075 20.5485 11.7714 -6.67915 18.6643 
12.9529 -13.6975 16.7944 11.9059 -8.50759 18.1112 11.7591 0.0113928 21.4267 
12.1603 -10.4153 17.603 11.845 1.90633 22.3897 12.5391 -12.1361 17.1749 
13.1803 -14.4069 16.8349 11.7736 -2.45343 20.4528 11.777 -4.08965 19.8078 
11.804 -0.736284 21.2276 11.817 -5.70325 19.2309 11.9694 3.14232 23.1633 
11.909 -7.41193 18.677 12.0895 -9.29175 18.1404 12.8 -12.8101 17.242 
11.8879 1.19536 22.236 12.3994 -11.1504 17.6557 13.3736 -15.1686 16.8682 
11.9144 0.321815 21.942 11.8667 -1.42795 21.0923 11.8541 -3.12104 20.3904 
11.8759 -4.76132 19.7918 13.0512 -13.497 17.2996 11.9388 -6.4023 19.2385 
12.0656 -8.17245 18.6967 12.2984 -10.0711 18.1747 12.6513 -11.864 17.711 
12.0339 2.41567 23.0867 13.2779 -14.2136 17.3454 12.0321 1.33747 22.6604 
11.9701 -0.390411 21.7707 11.9403 -2.1072 20.998 11.9448 -3.80294 20.3563 
11.9861 -5.44975 19.793 12.0756 -7.12486 19.2536 12.9049 -12.5648 17.7673 
12.1676 3.71874 23.8725 12.2439 -8.95154 18.7193 12.5284 -10.8315 18.2131 
13.4713 -14.9805 17.3773 12.158 2.25349 23.3404 12.0852 0.628753 22.4835 
12.0372 -1.06661 21.6448 12.0229 -2.79766 20.937 13.1493 -13.2673 17.8213 
12.0458 -4.50015 20.3453 12.1083 -6.15128 19.805 12.2299 -7.86982 19.272 
12.7703 -11.5698 18.2572 12.4451 -9.73259 18.7448 12.2593 3.25261 23.9485 
13.3716 -13.9883 17.8718 12.1467 -0.031106 22.3361 12.2154 1.61461 23.2157 
12.1119 -1.74982 21.5503 12.1152 -3.50754 20.9053 12.157 -5.2067 20.3514 
12.2446 -6.86489 19.8221 13.0136 -12.2913 18.3069 12.4038 -8.63197 19.2911 
12.6651 -10.5024 18.7748 12.382 4.33318 24.5659 13.5612 -14.7635 17.8927 
12.3461 2.6803 23.9448 12.214 -0.691566 22.2099 12.2712 0.980719 23.0647 
12.1949 -2.4575 21.4874 13.2484 -13.0065 18.3604 12.2175 -4.23296 20.8987 
12.2794 -5.91429 20.3673 12.3971 -7.59118 19.8398 12.8952 -11.2553 18.8119 
12.5978 -9.40114 19.312 12.4656 3.75309 24.577 13.4631 -13.7288 18.4174 
12.4041 2.02981 23.8124 12.331 0.346258 22.9156 12.2876 -1.37533 22.1093 
12.2876 -3.19348 21.4564 12.3293 -4.96104 20.9092 12.4153 -6.62085 20.386 
13.1264 -11.9918 18.8587 12.5672 -8.33006 19.8573 12.8075 -10.1676 19.3374 
13.6432 -14.5213 18.4088 12.5771 4.90566 25.1253 12.5373 3.11919 24.5138 
12.4589 1.38653 23.6516 12.3956 -0.304366 22.7803 13.3497 -12.7165 18.9152 
12.3696 -2.0949 22.0416 12.3902 -3.94738 21.4529 12.4516 -5.67863 20.9286 
12.5662 -7.32831 20.4038 13.0249 -10.9252 19.3718 12.7539 -9.07781 19.8756 
12.6589 4.26194 25.1147 13.5542 -13.4356 18.9842 12.5932 2.45478 24.3749 
12.5164 0.74708 23.4909 12.4667 -0.985384 22.6707 12.4617 -2.85201 22.009 
12.5022 -4.69953 21.468 12.587 -6.3813 20.9489 13.2427 -11.6703 19.4185 
12.7324 -8.04131 20.4196 12.9525 -9.82924 19.8989 13.717 -14.2607 18.914 
12.7559 5.44594 25.5765 12.7252 3.58673 25.0337 12.6463 1.79952 24.2098 
12.5784 0.0964335 23.3446 12.5466 -1.70935 22.5957 13.4529 -12.4019 19.4816 
12.5638 -3.63166 22.0079 12.6247 -5.43078 21.4909 12.7361 -7.07226 20.966 
13.1559 -10.5794 19.9326 12.9112 -8.76084 20.4362 13.7819 -13.9918 19.3922 
13.0979 -9.4872 20.4588 12.8977 -7.75879 20.9805 12.7592 -6.13404 21.5131 
12.6757 -4.40851 22.0276 12.7798 2.9009 24.8955 12.7015 1.15274 24.0435 
12.6366 -2.47841 22.5601 12.6469 -0.581541 23.2255 12.841 4.77258 25.5716 
13.358 -11.3202 19.9818 13.6468 -13.1144 19.5719 13.0679 -8.44662 20.9958 
13.2864 -10.2171 20.4934 12.9059 -6.81205 21.53 12.7978 -5.15752 22.055 
12.7373 -3.27678 22.5606 13.5518 -12.0416 20.0551 12.7239 -1.3026 23.1436 
12.7612 0.502159 23.8916 12.8319 2.22873 24.733 12.9076 4.07447 25.497 
12.9215 5.95424 25.9428 13.8433 -13.697 19.8762 13.2423 -9.14119 21.0183 
13.0621 -7.47445 21.5429 13.4712 -10.9386 20.5485 12.9312 -5.86641 22.0798 
12.8486 -4.0768 22.5852 12.8106 -2.07157 23.1046 12.8267 -0.169817 23.7666 
12.8857 1.5711 24.5681 12.9633 3.37056 25.3707 13.7302 -12.7173 20.1743 
13.0137 5.27932 25.9592 13.2234 -8.13131 21.5572 13.4155 -9.84011 21.0558 
13.075 -6.53664 22.0975 12.9705 -4.84594 22.6188 12.9085 -2.88021 23.1053 
[...]
POINT_DATA 724
VECTORS velocity double
1.10879 -1.65357 1.53235 1.27999 -1.09751 1.62143 0.893068 -2.23611 1.42237 
1.40121 -0.595747 1.66983 0.709498 -2.73391 1.35901 0.948137 -2.09984 1.38147 
1.48127 -0.147153 1.67682 0.593169 -3.21448 1.37767 1.10401 -1.65839 1.44018 
0.768379 -2.56521 1.29459 1.22893 -1.23591 1.48552 1.33568 -0.79995 1.52749 
1.5221 0.205788 1.6474 0.631051 -2.98317 1.27651 0.566936 -3.72844 1.48683 
0.886328 -2.24068 1.26272 1.38085 -0.523747 1.5011 1.03458 -1.81117 1.29182 
0.55976 -3.4118 1.33714 0.695949 -2.7312 1.18418 1.53524 0.491824 1.58856 
0.626681 -4.33105 1.67467 1.17243 -1.33178 1.32925 1.42364 -0.198496 1.47416 
0.569599 -3.91344 1.48855 0.571425 -3.16785 1.20257 0.797315 -2.42416 1.12823 
1.24689 -0.96155 1.30827 1.52551 0.714744 1.50498 0.9299 -2.03513 1.1283 
0.726018 -4.89712 1.86908 0.539393 -3.64963 1.33542 0.614033 -2.90616 1.07898 
1.44193 0.0813668 1.42016 0.61573 -4.30187 1.60361 1.03782 -1.65533 1.12703 
1.30004 -0.601828 1.27507 0.693982 -2.61996 0.99283 0.523179 -3.35243 1.16093 
0.853507 -5.51345 2.08164 1.49596 0.884231 1.39778 1.44481 0.351625 1.35038 
1.11321 -1.29864 1.10087 0.72366 -4.88642 1.82546 0.798247 -2.29679 0.952549 
0.546993 -3.89757 1.38181 0.536751 -3.0753 0.998947 1.33692 -0.23407 1.23007 
0.894347 -1.95673 0.924011 0.64046 -4.47404 1.62486 0.497205 -3.53405 1.16013 
0.586857 -2.80928 0.872538 1.17732 -0.913824 1.07321 1.45704 0.987787 1.29046 
0.853868 -5.50614 2.05046 0.99001 -6.13354 2.29075 1.39188 0.315494 1.21982 
0.66595 -2.5266 0.78997 0.976718 -1.59229 0.894762 0.559402 -4.06451 1.40339 
0.476961 -3.22643 0.954599 1.24594 -0.441313 1.06346 0.77278 -5.12441 1.88131 
1.37992 0.581848 1.14352 0.753035 -2.21138 0.735171 0.493643 -2.9616 0.782554 
0.488073 -3.67837 1.16851 1.05883 -1.16353 0.879887 0.682765 -4.70211 1.68253 
0.954098 -5.96149 2.20018 1.10448 -6.63272 2.45704 1.40166 1.06097 1.15889 
1.27216 -0.0982883 1.02638 0.54498 -2.70461 0.655576 0.842526 -1.84012 0.700927 
0.438584 -3.34502 0.936278 0.587694 -4.25769 1.45402 0.855076 -5.50665 2.00612 
1.11099 -0.77645 0.852024 1.2758 0.194953 0.97073 1.19688 -7.00513 2.58677 
1.0336 -6.31471 2.31136 1.32167 0.67115 1.00286 0.619387 -2.4134 0.570744 
0.421784 -3.07048 0.726675 0.496691 -3.82922 1.20528 0.742752 -4.99185 1.77651 
0.917391 -1.44988 0.673889 1.33582 1.09518 1.01829 1.14486 -0.402799 0.817008 
0.910238 -5.76228 2.07917 0.442268 -2.82733 0.558068 0.628457 -4.47399 1.52561 
0.421097 -3.45312 0.950357 0.69994 -2.07483 0.516921 0.978841 -1.03937 0.649959 
1.15231 -6.81269 2.49309 1.19511 0.100035 0.816677 1.28682 -7.29596 2.712 
0.785127 -5.19746 1.83315 1.24466 0.620201 0.849848 0.51831 -3.98411 1.25892 
0.3731 -3.15033 0.70978 0.493419 -2.56946 0.43767 1.04855 -6.37899 2.30719 
0.779986 -1.68135 0.485412 1.26783 1.0966 0.884853 1.04833 -0.536361 0.65133 
0.660743 -4.6413 1.57393 0.931223 -5.86826 2.08984 0.421223 -3.55747 0.987813 
0.360795 -2.905 0.504122 0.565438 -2.25435 0.361458 0.865192 -1.20673 0.479695 
1.10987 -0.00196867 0.667506 1.20162 -6.97508 2.55407 1.35837 -7.4175 2.81748 
0.807523 -5.31963 1.85184 1.15983 0.518788 0.699295 0.541419 -4.12141 1.30604 
0.34674 -3.21402 0.726614 0.385657 -2.66654 0.346632 1.0763 -6.4944 2.33175 
1.20039 1.07647 0.762305 0.652718 -1.85462 0.32553 0.942633 -0.695605 0.490941 
1.30147 -7.2164 2.71186 0.684789 -4.77739 1.60437 0.949405 -5.9665 2.09964 
0.431359 -3.65843 1.03323 0.304036 -2.94589 0.491961 0.444062 -2.37652 0.243238 
1.00455 -0.193765 0.510092 0.739136 -1.3982 0.318568 1.19602 -6.90989 2.5258 
1.11584 0.670629 0.61628 1.43638 -7.38371 2.95319 0.828176 -5.44463 1.86961 
0.563132 -4.25139 1.34578 0.337775 -3.27254 0.764582 0.300237 -2.71188 0.301192 
0.812898 -0.931126 0.326772 1.07325 -6.4772 2.30663 0.521382 -2.01399 0.190068 
1.02034 0.157774 0.49576 1.11836 1.03267 0.625325 1.34735 -7.1819 2.79082 
0.705977 -4.91423 1.63009 0.446313 -3.76436 1.07982 0.959193 -6.03077 2.09705 
0.270111 -2.96877 0.514222 0.858254 -0.526039 0.328835 0.334163 -2.45541 0.168241 
0.599911 -1.59993 0.171429 1.20153 -6.86678 2.52535 1.02016 0.5379 0.472905 
1.51546 -7.21836 3.12746 0.583153 -4.38672 1.38026 0.842356 -5.55091 1.87794 
0.340705 -3.34089 0.814441 0.894024 -0.123711 0.335354 0.237778 -2.72476 0.301821 
0.392947 -2.13955 0.0912454 0.663491 -1.18348 0.167671 1.08672 -6.50578 2.3162 
1.0376 0.975748 0.503287 1.31397 -7.01502 2.73334 1.45517 -7.08012 3.02175 
0.721755 -5.0433 1.64689 0.462925 -3.88401 1.12387 0.255212 -2.99749 0.562689 
0.973007 -6.10325 2.10707 0.243293 -2.48886 0.143104 0.717345 -0.761036 0.174479 
0.458132 -1.77135 0.0549702 0.891808 0.151614 0.314436 1.20761 -6.78314 2.53458 
0.937515 0.569955 0.360914 1.62109 -6.98952 3.41419 0.599147 -4.52469 1.40607 
0.350785 -3.43167 0.86828 0.855656 -5.65588 1.88885 0.199102 -2.72643 0.341515 
0.278364 -2.21267 0.0409025 0.521729 -1.3653 0.0448574 0.743388 -0.402905 0.172362 
1.09906 -6.496 2.33296 0.94444 0.899682 0.378617 1.36466 -6.91256 2.8527 
0.477838 -4.01735 1.16021 0.734466 -5.1716 1.66055 0.254118 -3.05013 0.62436 
0.177415 -2.48838 0.165622 1.53828 -6.90922 3.25269 0.98574 -6.14882 2.12279 
0.786927 0.0366548 0.197771 0.330987 -1.87597 -0.0144478 0.569949 -0.968223 0.0454619 
1.24782 -6.72834 2.62451 0.8308 0.454927 0.238656 1.74244 -6.8499 3.79446 
0.611051 -4.66561 1.42449 0.362931 -3.54747 0.91706 0.866991 -5.74345 1.90207 
0.180809 -2.74106 0.404975 0.188375 -2.23116 0.041186 0.386057 -1.49857 -0.0366187 
1.12891 -6.48823 2.39611 0.624664 -0.52382 0.0650884 1.42646 -6.79535 3.02378 
0.850893 0.816562 0.270901 0.489261 -4.16245 1.18709 0.743367 -5.28743 1.6712 
0.260333 -3.13532 0.685531 0.67755 -0.0736917 0.0978191 0.136963 -2.47851 0.221529 
1.00683 -6.18423 2.16489 1.63588 -6.81367 3.55727 0.222907 -1.92428 -0.033784 
0.447644 -1.07068 -0.033891 1.29608 -6.64833 2.75314 0.726494 0.355604 0.140454 
1.86458 -6.84256 4.21999 0.61858 -4.80317 1.43661 0.373496 -3.68559 0.955612 
0.87937 -5.81182 1.92552 0.176198 -2.78658 0.47455 1.16372 -6.44774 2.48646 
0.124831 -2.21992 0.0829104 0.510006 -0.618134 -0.0125479 0.274999 -1.55375 -0.069976 
1.50061 -6.72139 3.25164 0.755784 0.728312 0.179414 0.750582 -5.38864 1.6848 
0.496357 -4.31376 1.20491 1.0259 -6.17678 2.21627 0.268368 -3.25281 0.737205 
0.569654 -0.164461 0.0218172 0.116568 -2.48782 0.293155 1.35092 -6.58316 2.91888 
0.142292 -1.92252 -0.0111912 1.73424 -6.82321 3.89668 0.336707 -1.13359 -0.0757992 
0.62251 0.263416 0.0635801 0.889843 -5.84543 1.95572 0.62302 -4.93377 1.44688 
1.19109 -6.38737 2.57791 0.380663 -3.84034 0.98303 1.95967 -6.9127 4.59795 
0.178722 -2.8712 0.538444 0.0857289 -2.20593 0.146981 0.401317 -0.68776 -0.0599632 
1.57298 -6.71928 3.499 0.183037 -1.56928 -0.0640424 0.658969 0.637076 0.104594 
1.37751 -6.53823 3.03347 1.04288 -6.14354 2.27754 0.755743 -5.46555 1.70273 
0.499856 -4.46705 1.21737 0.463357 -0.243086 -0.0300847 0.275356 -3.39841 0.77709 
0.109219 -2.53246 0.364147 0.084959 -1.90569 0.0402989 0.238325 -1.16737 -0.0834976 
1.80502 -6.89893 4.18308 0.518276 0.175087 0.00732523 1.57144 -6.71723 3.55867 
1.21436 -6.33901 2.67567 0.90006 -5.85365 1.99745 0.625058 -5.05081 1.45879 
0.384614 -4.00693 1.00249 0.183832 -2.99295 0.591059 0.29962 -0.73935 -0.0786495 
2.00598 -6.96857 4.84396 0.0646255 -2.21728 0.219123 0.110319 -1.56503 -0.0276583 
0.561104 0.545161 0.0469645 1.73672 -6.8952 4.05652 1.40041 -6.53507 3.1533 
1.06149 -6.11209 2.35651 0.760813 -5.52108 1.73065 0.360194 -0.311664 -0.0579111 
0.500821 -4.6174 1.22893 0.28055 -3.56612 0.807247 0.109578 -2.6203 0.427654 
0.154001 -1.18341 -0.062298 0.0475519 -1.90026 0.107045 1.89607 -7.00314 4.56083 
0.414878 0.0912691 -0.0282451 1.24027 -6.33131 2.79344 1.58092 -6.76613 3.66605 
0.912868 -5.85335 2.05729 0.626734 -5.15353 1.47832 0.386523 -4.18083 1.019 
0.189876 -3.14823 0.633605 0.20733 -0.777344 -0.0713761 0.0561935 -2.26962 0.289053 
0.0563887 -1.56089 0.0283235 1.99956 -6.94882 4.93696 0.463858 0.455369 0.00667308 
1.75506 -6.97236 4.20103 1.08371 -6.10631 2.45659 1.42348 -6.5866 3.28608 
0.768106 -5.56208 1.77429 0.26275 -0.37078 -0.0628805 0.501322 -4.7622 1.24582 
0.284803 -3.75137 0.832653 0.114464 -2.75055 0.481636 0.0856029 -1.19343 -0.0200199 
0.0263046 -1.92583 0.177093 1.88298 -7.00513 4.62685 0.314251 0.0127832 -0.0437794 
1.60084 -6.85877 3.80605 1.26527 -6.37384 2.92032 0.929305 -5.86079 2.13694 
0.62998 -5.24134 1.51075 0.388249 -4.35812 1.03872 0.196559 -3.33052 0.669388 
0.127548 -0.807236 -0.0433755 0.0563152 -2.36768 0.35105 0.0199644 -1.57515 0.0923466 
0.369963 0.370051 -0.017128 1.9496 -6.84724 4.86751 1.74597 -7.00217 4.26774 
1.44401 -6.68188 3.418 1.10616 -6.13849 2.56774 0.174472 -0.421882 -0.048299 
0.778479 -5.59569 1.83545 0.503106 -4.8965 1.27336 0.289296 -3.94758 0.858596 
0.122157 -2.91667 0.527045 0.0339708 -1.21106 0.0335863 0.0174392 -1.99352 0.24205 
1.84295 -6.92335 4.5916 0.219385 -0.0597932 -0.0411962 1.59874 -6.92417 3.88661 
1.28527 -6.4605 3.04117 0.947031 -5.88856 2.22948 0.635673 -5.31289 1.55839 
0.391147 -4.53096 1.06671 0.20416 -3.53101 0.702614 0.0626163 -0.837707 -0.00236957 
0.0621557 -2.50803 0.403464 -0.00141078 -1.62272 0.154918 0.283138 0.291025 -0.0266753 
1.87425 -6.70446 4.6861 1.71701 -6.95936 4.26571 1.44647 -6.77171 3.50415 
1.12448 -6.21027 2.67562 0.790686 -5.63027 1.90999 0.0987261 -0.469098 -0.0200575 
0.506849 -5.01239 1.31417 0.295 -4.14508 0.889918 0.131904 -3.10845 0.566747 
-0.00162289 -1.25203 0.0892384 0.0176747 -2.10607 0.297941 0.207075 0.219097 -0.0257307 
-0.0105712 -1.71209 0.210223 0.0719478 -2.68242 0.447864 0.213088 -3.73848 0.737766 
0.395734 -4.68777 1.10608 1.57861 -6.93083 3.90977 1.29062 -6.5592 3.12743 
0.643149 -5.36878 1.61895 0.962376 -5.94463 2.32292 1.78417 -6.77797 4.47265 
0.01304 -0.884507 0.0435408 0.134138 -0.126004 -0.0245282 0.024468 -2.25901 0.344583 
-0.022903 -1.32817 0.140249 0.14346 -3.31423 0.60494 0.302178 -4.33084 0.930206 
0.511992 -5.10229 1.36708 0.0364165 -0.53093 0.0151306 0.801967 -5.67578 1.98868 
1.13148 -6.30455 2.75876 1.43233 -6.82287 3.54157 1.67316 -6.84086 4.20023 
1.78384 -6.55519 4.42858 0.137521 0.147286 -0.0177319 -0.0102386 -1.844 0.256266 
0.0846134 -2.87898 0.487742 -0.0215037 -0.959751 0.0876791 0.223436 -3.93941 0.778993 
0.401275 -4.81532 1.1566 0.650499 -5.41532 1.68557 0.969585 -6.02508 2.40003 
1.2807 -6.64041 3.17208 1.54531 -6.86159 3.88139 0.059523 -0.212074 0.000667351 
1.7121 -6.59986 4.28513 0.0358912 -2.4419 0.384436 -0.032018 -1.44478 0.183119 
0.156582 -3.52005 0.646106 0.31017 -4.48969 0.980782 0.5165 -5.16396 1.42582 
0.808295 -5.73905 2.05858 -0.011115 -0.616003 0.0509963 1.12481 -6.39924 2.80679 
1.40555 -6.8099 3.5347 1.61854 -6.66337 4.07826 1.68314 -6.41665 4.11798 
0.0718485 0.0676023 -0.00463324 -0.00284249 -2.01176 0.294278 0.0993616 -3.08331 0.527633 
-0.0418955 -1.06901 0.12508 0.234648 -4.11879 0.829234 0.405614 -4.90402 1.21336 
0.653973 -5.46224 1.74605 0.966211 -6.12011 2.45092 1.25813 -6.67654 3.1768 
1.50315 -6.71611 3.80761 0.0030518 -0.300473 0.026216 1.62844 -6.41405 4.03723 
0.0505163 -2.64066 0.421794 -0.0314172 -1.598 0.2173 0.1707 -3.71086 0.694414 
0.31697 -4.60804 1.03902 0.517032 -5.20443 1.47945 -0.04248 -0.719524 0.0803387 
0.80544 -5.81874 2.10596 1.37043 -6.71803 3.48952 1.10747 -6.47327 2.82287 
1.55499 -6.45264 3.9036 0.014806 -0.0217195 0.00978853 1.57304 -6.28993 3.76567 
0.00950375 -2.20195 0.327762 0.115437 -3.27989 0.572491 -0.0501504 -1.2076 0.153127 
0.245064 -4.2615 0.888466 0.405473 -4.95342 1.26633 0.649641 -5.51849 1.78744 
0.950909 -6.20915 2.46823 1.45302 -6.51096 3.68775 1.23092 -6.64648 3.15741 
-0.0373658 -0.401648 0.0465518 1.53129 -6.23396 3.72674 0.0671635 -2.83889 0.46188 
-0.0237186 -1.77629 0.245261 0.184509 -3.87111 0.752203 0.319208 -4.67826 1.09655 
0.510027 -5.23744 1.51526 -0.0601688 -0.846304 0.100798 0.791089 -5.90466 2.12198 
1.0815 -6.49699 2.80745 1.33656 -6.53368 3.42437 1.48222 -6.24238 3.68035 
-0.0305915 -0.123925 0.0209302 0.0250726 -2.39833 0.361925 0.13171 -3.45244 0.626345 
1.45166 -6.16583 3.37315 -0.0490767 -1.37188 0.174061 0.251622 -4.35586 0.9514 
0.397061 -4.97453 1.3021 0.634478 -5.58508 1.79938 0.925099 -6.269 2.45224 
1.2008 -6.52798 3.11171 1.4042 -6.23738 3.53101 -0.063628 -0.521991 0.058872 
1.42415 -6.06639 3.41944 -0.0110558 -1.96708 0.272325 0.0846765 -3.01978 0.509852 
0.195461 -3.98674 0.817495 0.312699 -4.70395 1.13982 -0.0667367 -0.997055 0.113721 
0.492554 -5.27499 1.52246 0.764821 -5.97869 2.10307 1.05048 -6.44789 2.76566 
1.30003 -6.28168 3.32162 -0.0632164 -0.243038 0.0252443 0.0424968 -2.58439 0.402691 
1.35344 -6.00663 3.33425 -0.0410474 -1.55338 0.192885 0.146158 -3.58543 0.690124 
0.249919 -4.39796 1.00597 1.33673 -6.05166 3.00285 0.377437 -4.98462 1.30837 
1.16756 -6.32522 3.03561 0.607174 -5.65271 1.77656 0.890775 -6.27564 2.40525 
-0.077592 -0.664503 0.0635552 0.00484519 -2.15456 0.304735 1.32131 -5.91051 3.08386 
0.101378 -3.16664 0.568857 1.25304 -6.01834 3.16671 0.199555 -4.04886 0.88155 
-0.0644941 -1.16685 0.123537 0.293723 -4.70022 1.15392 1.01391 -6.31517 2.69403 
0.463382 -5.32006 1.49539 0.727723 -6.01988 2.05017 -0.0832993 -0.383236 0.0220974 
1.26735 -5.8061 3.05983 0.0601717 -2.74203 0.454596 -0.0280758 -1.73815 0.215981 
0.155397 -3.66606 0.758691 1.12231 -6.07193 2.90941 0.235397 -4.39601 1.03575 
0.84924 -6.21176 2.32893 0.34563 -4.99909 1.27867 0.568733 -5.70727 1.71989 
1.21405 -5.92433 2.61195 -0.0810567 -0.828621 0.0646217 1.1787 -5.76954 2.93783 
0.0222727 -2.32012 0.348024 0.114446 -3.26338 0.636878 1.20995 -5.75251 2.72838 
0.968247 -6.10696 2.58387 0.191918 -4.05775 0.928767 -0.0555846 -1.34431 0.13664 
0.260716 -4.688 1.12896 0.682825 -6.01113 1.96904 0.423449 -5.36829 1.43479 
-0.091689 -0.547811 0.015283 1.17084 -5.6098 2.75288 -0.0120861 -1.90762 0.249486 
1.05838 -5.79301 2.72255 0.0757094 -2.85312 0.518251 0.154795 -3.68728 0.818916 
0.205489 -4.37044 1.02708 0.801958 -6.06908 2.22546 0.302387 -5.0235 1.21271 
0.522636 -5.73561 1.63618 1.08512 -5.77728 2.20756 -0.0757304 -1.00797 0.0693099 
1.09292 -5.51916 2.66711 0.0391737 -2.44509 0.40506 0.119522 -3.29413 0.702884 
-0.0422988 -1.50968 0.15911 0.91262 -5.83352 2.43222 1.08931 -5.58523 2.34638 
0.169213 -4.03055 0.943747 0.214537 -4.68345 1.06308 0.635184 -5.93867 1.86956 
0.374874 -5.40823 1.34493 1.06515 -5.41544 2.41401 -0.0892444 -0.738881 0.0139692 
0.983888 -5.48981 2.49057 0.00530457 -2.04685 0.298788 0.0844423 -2.88779 0.582471 
0.141135 -3.66419 0.856896 0.160168 -4.34231 0.973794 0.75474 -5.8364 2.10391 
0.249863 -5.05463 1.11516 0.471921 -5.7193 1.53139 0.949655 -5.60119 1.79088 
-0.0631644 -1.18993 0.0871275 0.995733 -5.26931 2.35485 -0.0257674 -1.65848 0.198839 
0.114423 -3.27642 0.757102 0.0492075 -2.47307 0.459963 0.130128 -3.98773 0.915508 
0.856102 -5.4832 2.24904 0.157542 -4.69219 0.960811 0.320403 -5.42559 1.23194 
0.587089 -5.78278 1.75443 0.955225 -5.39927 1.92397 0.953264 -5.22275 2.05718 
-0.0761807 -0.956095 0.0333333 0.901547 -5.1497 2.19755 0.0859495 -2.87333 0.643378 
0.112218 -3.61277 0.858667 0.101703 -4.32596 0.878145 0.013367 -2.04441 0.333831 
0.190119 -5.08089 0.991512 0.70644 -5.51593 1.95683 0.420004 -5.63928 1.41192 
0.807035 -5.38296 1.36284 -0.0331926 -1.50234 0.169165 0.882348 -5.02091 1.94233 
0.0966375 -3.21746 0.784128 0.0761779 -3.94961 0.842061 0.0545323 -2.4543 0.516225 
0.0923056 -4.70969 0.828806 0.789425 -5.10714 2.0136 0.261988 -5.40112 1.10027 
0.541723 -5.52905 1.62665 0.833034 -5.13981 1.59107 -0.0562985 -1.15744 0.0827969 
0.0170287 -1.99121 0.362417 0.068763 -3.5581 0.818723 0.805096 -4.84767 1.85196 
0.0773958 -2.80011 0.682274 0.0331873 -4.3243 0.746813 0.125102 -5.0869 0.846843 
0.368664 -5.47537 1.28014 0.656138 -5.12073 1.77514 0.679383 -5.14933 0.990985 
-0.0148214 -1.6076 0.23551 0.769676 -4.8365 1.54064 0.0670406 -3.151 0.779219 
0.0502915 -2.3429 0.542416 0.0101119 -3.92707 0.727193 0.0209704 -4.72292 0.673205 
0.202401 -5.3158 0.955272 0.712333 -4.72778 1.71641 0.49629 -5.18455 1.47715 
0.702676 -4.93057 1.18604 0.0618452 -2.72901 0.704313 0.0119007 -3.51862 0.735667 
-0.029179 -1.36005 0.178475 0.695626 -4.59022 1.43358 -0.0424139 -4.33064 0.587456 
0.0565687 -5.05257 0.685555 0.320551 -5.21596 1.13905 0.0181997 -1.88466 0.393182 
0.595885 -4.70984 1.54507 0.548079 -4.85658 0.623227 0.617404 -4.64761 0.997662 
0.0474588 -2.31145 0.594151 0.0245531 -3.10632 0.737377 -0.0653518 -3.92144 0.576594 
-0.0550473 -4.7127 0.498614 0.143504 -5.15203 0.800458 0.621685 -4.40515 1.37819 
0.450012 -4.76897 1.30004 0.0344083 -2.70708 0.70705 -0.00476672 -1.5151 0.294226 
-0.0576744 -3.5048 0.608699 0.575052 -4.34553 1.02512 -0.12343 -4.32555 0.405865 
-0.0134825 -4.96055 0.512112 0.272961 -4.87139 0.982521 0.0281667 -1.93808 0.489757 
0.525577 -4.30525 1.26442 0.440558 -4.56221 0.337113 0.0350387 -2.32986 0.64157 
0.488544 -4.38365 0.607916 -0.0351816 -3.09757 0.645186 -0.147237 -3.90906 0.398742 
0.0862649 -4.90288 0.637354 0.393216 -4.34531 1.08448 -0.133654 -4.66319 0.309807 
0.513347 -4.10012 0.978358 -0.0123115 -2.71166 0.657872 0.0143223 -1.65771 0.430014 
-0.135595 -3.47859 0.446464 0.439424 -3.95317 0.960161 0.221277 -4.46932 0.802858 
-0.0810819 -4.79837 0.333388 -0.207092 -4.29265 0.20897 0.0242456 -2.00698 0.574204 
0.42544 -4.0774 0.508357 0.334231 -4.19983 0.0739068 0.00348505 -2.35259 0.637576 
-0.10357 -3.04749 0.510747 0.407677 -3.81085 0.642942 0.322467 -3.9357 0.835365 
0.0347775 -4.5632 0.471713 -0.230981 -3.87389 0.204849 -0.210468 -4.56212 0.114855 
-0.0659632 -2.62299 0.558771 0.012582 -1.79598 0.536497 0.254472 -3.85839 -0.103926 
0.32399 -3.76303 0.234192 0.344786 -3.60995 0.657566 -0.213644 -3.42436 0.268253 
0.171639 -4.00613 0.607694 -0.141706 -4.55267 0.157863 -0.288511 -4.22527 0.00587053 
-0.0151169 -2.16689 0.590519 0.305907 -3.48219 0.356304 -0.166843 -2.95036 0.366394 
-0.00706835 -4.14106 0.311155 0.250964 -3.49126 0.561382 -0.312496 -3.82594 0.00184894 
-0.281517 -4.39024 -0.077387 -0.0963882 -2.43794 0.478053 0.18451 -3.48085 -0.237221 
0.235855 -3.40995 0.0228413 -0.0256713 -1.94508 0.541322 -0.291607 -3.38695 0.0741075 
-0.192542 -4.22875 -0.00556237 0.12697 -3.51479 0.407046 0.245498 -3.21526 0.309947 
-0.364347 -4.09858 -0.196604 -0.234987 -2.92578 0.199172 -0.044803 -3.69104 0.154939 
0.182459 -3.05753 0.285938 -0.340263 -4.13948 -0.254001 0.188136 -3.08827 -0.0213269 
-0.387967 -3.72394 -0.200988 -0.175716 -2.52154 0.305034 -0.0944196 -2.11045 0.436305 
0.127351 -3.08016 -0.317599 0.0777054 -3.0812 0.213915 -0.226585 -3.83192 -0.143321 
-0.360943 -3.28657 -0.115465 -0.428145 -3.89507 -0.385787 0.151828 -2.82139 -0.0196758 
-0.29774 -2.8212 0.0234891 -0.0669862 -3.19485 0.020355 0.118038 -2.70521 0.0848967 
0.0883699 -2.72354 -0.343999 -0.378643 -3.80505 -0.398593 -0.205476 -2.34669 0.203265 
-0.449942 -3.55064 -0.386508 -0.233386 -3.36053 -0.236323 0.0387515 -2.61955 0.0352811 
0.0948881 -2.49117 -0.135938 -0.407619 -3.08723 -0.264624 -0.470994 -3.60467 -0.544223 
0.0619117 -2.41758 -0.335535 -0.32794 -2.60644 -0.0922193 -0.0705125 -2.66349 -0.0856667 
0.0595195 -2.28659 -0.110787 -0.378842 -3.3726 -0.480365 -0.483107 -3.28116 -0.501947 
-0.211453 -2.82451 -0.280583 0.0385325 -2.10846 -0.299625 0.010444 -2.15178 -0.117658 
-0.439341 -2.84616 -0.39413 -0.50309 -3.27768 -0.638423 -0.446281 -3.14143 -0.61839 
-0.0615271 -2.15075 -0.164156 -0.317982 -2.73618 -0.468173 0.0168635 -1.87362 -0.253679 
-0.506718 -2.97972 -0.627229 -0.16371 -2.25653 -0.280532 -0.0152909 -1.72853 -0.218903 
-0.48791 -2.87715 -0.703704 -0.0774146 -1.73705 -0.233745 -0.368036 -2.49159 -0.575318 
-0.204734 -2.01633 -0.364067 
