# vtk DataFile Version 3.0
vtk output
ASCII
DATASET POLYDATA
POINTS 724 float
10.057 -10.4248 11.0428 10.2633 -11.4327 10.9262 9.86388 -9.21298 11.3059 
10.4733 -12.2764 10.92 9.73125 -8.03018 11.682 10.0388 -9.67802 11.5338 
10.6947 -13.0153 11.0048 9.65849 -6.86787 12.1677 10.2277 -10.589 11.4501 
9.91839 -8.6506 11.8813 10.4148 -11.359 11.4341 10.596 -12.0775 11.4183 
10.9013 -13.6117 11.1581 9.82548 -7.60829 12.2686 9.64745 -5.76659 12.7389 
10.141 -9.55535 11.9664 10.775 -12.5522 11.574 10.3509 -10.4824 11.9374 
9.78142 -6.56781 12.7439 10.0172 -8.42466 12.372 11.1045 -14.1238 11.37 
9.69407 -4.70373 13.3985 10.5724 -11.3565 11.9359 10.9674 -13.0861 11.7149 
9.77552 -5.51277 13.2774 9.93592 -7.28769 12.8314 10.2218 -9.31071 12.4292 
10.7924 -12.0018 12.085 11.303 -14.5605 11.6335 10.4264 -10.212 12.4181 
9.77104 -3.8655 13.9978 9.89925 -6.12503 13.3604 10.109 -8.11085 12.8888 
11.162 -13.5609 11.9108 9.86536 -4.85757 13.8661 10.632 -10.9649 12.4753 
11.0101 -12.5947 12.2493 10.2946 -8.98375 12.9198 10.0407 -6.89409 13.3938 
9.87921 -3.05023 14.652 11.5016 -14.9378 11.9525 11.3615 -14.0368 12.1332 
10.8461 -11.609 12.6137 9.92284 -3.95609 14.4288 10.4853 -9.82518 12.9389 
10.0023 -5.64252 13.9209 10.1989 -7.72656 13.4206 11.2363 -13.1881 12.4309 
10.6875 -10.5715 13.0143 10.0246 -4.61553 14.4587 10.1444 -6.46292 13.9453 
10.3694 -8.58469 13.4423 11.0695 -12.2439 12.759 11.6699 -15.2106 12.2655 
10.0165 -3.10672 15.0481 10.0131 -2.25863 15.3546 11.4954 -14.0558 12.5108 
10.5522 -9.42069 13.4743 10.9038 -11.2612 13.1339 10.1432 -5.32805 14.4925 
10.2958 -7.31013 13.9625 11.3118 -12.9709 12.8629 10.094 -3.64594 15.0696 
11.6921 -14.5483 12.7373 10.7514 -10.1971 13.5478 10.458 -8.17315 13.9807 
10.2717 -6.10344 14.5062 11.136 -11.9726 13.2415 10.183 -4.26126 15.0781 
10.1499 -2.50198 15.6763 10.1472 -1.5754 16.0051 11.8537 -15.4563 12.65 
11.5143 -13.5135 13.0127 10.6341 -9.02128 14.0157 10.9686 -10.9475 13.6415 
10.4118 -6.92683 14.5153 10.2874 -4.95776 15.0789 10.2326 -3.11034 15.6884 
11.3576 -12.5812 13.3838 11.7101 -14.0035 13.2028 10.2755 -0.962972 16.6051 
10.2844 -1.99086 16.264 11.8864 -14.7942 13.145 10.8281 -9.83698 14.0772 
10.5643 -7.7789 14.5306 10.4058 -5.72193 15.0753 10.3227 -3.81071 15.6672 
11.1919 -11.6282 13.761 12.0342 -15.6415 13.0694 11.5795 -13.1595 13.545 
10.3727 -2.72441 16.2436 10.7321 -8.63331 14.5619 10.4267 -4.55652 15.6473 
10.5374 -6.53939 15.0748 11.038 -10.5965 14.1687 11.4245 -12.2805 13.8968 
10.3929 -1.18664 16.8749 11.8291 -13.9334 13.628 10.4237 -0.270687 17.2832 
10.4675 -3.47133 16.2129 12.0374 -14.7967 13.5936 10.5432 -5.34411 15.6339 
10.6826 -7.38629 15.0869 10.9178 -9.45942 14.6197 10.4524 -1.80999 16.8215 
11.2643 -11.3249 14.2748 12.1973 -15.7577 13.4814 11.6825 -13.0339 13.9902 
10.5734 -4.23436 16.19 10.53 -2.49984 16.7773 10.6712 -6.16171 15.6335 
10.8435 -8.23914 15.1177 11.1234 -10.2596 14.6964 11.514 -12.0882 14.3634 
11.9412 -13.8435 14.0487 10.5386 -0.736892 17.4593 10.5582 0.36503 17.8926 
10.6226 -3.22388 16.7413 12.1661 -14.7022 14.0432 10.6893 -5.0109 16.1842 
10.812 -7.00069 15.6484 11.0228 -9.08804 15.1664 10.6015 -1.50039 17.3628 
12.3449 -15.8197 13.877 11.3511 -11.0586 14.7705 11.772 -12.8542 14.4368 
10.6632 0.0929607 18.1068 10.7282 -3.94938 16.7323 10.6813 -2.24834 17.2962 
10.8149 -5.81021 16.1923 10.9682 -7.8557 15.6776 11.2228 -9.93273 15.222 
12.0208 -13.6073 14.4962 11.593 -11.8243 14.8438 10.6998 -0.583382 17.9757 
12.3448 -15.04 14.3374 10.7119 1.10897 18.5889 10.7787 -2.94487 17.2804 
10.8426 -4.69784 16.7372 10.9525 -6.63484 16.212 11.1413 -8.72224 15.7155 
11.8355 -12.5388 14.9178 10.7574 -1.33687 17.8603 11.4411 -10.7396 15.2856 
12.23 -14.1769 14.6329 12.5102 -15.841 14.3468 10.8091 0.607524 18.7012 
10.8852 -3.65139 17.2814 10.9663 -5.47484 16.7536 10.8426 -1.99341 17.837 
11.1043 -7.48398 16.2399 12.0602 -13.1468 15.0233 11.3322 -9.5715 15.7642 
11.6718 -11.4868 15.3596 10.8393 -0.349155 18.4524 12.4685 -14.868 14.8162 
10.8571 1.81886 19.2468 10.9992 -4.38332 17.2939 10.9397 -2.65786 17.831 
11.1014 -6.28152 16.7775 12.284 -13.7695 15.1278 11.271 -8.34143 16.2764 
11.5407 -10.3738 15.827 11.9041 -12.1515 15.4567 10.9152 -1.02036 18.4122 
12.6606 -15.8169 14.8003 10.9344 0.55398 19.0378 10.9687 1.52579 19.4699 
11.0453 -3.3487 17.8359 11.122 -5.14452 17.3154 11.2493 -7.11179 16.808 
11.0031 -1.66836 18.3953 11.4541 -9.18168 16.3254 12.1391 -12.7944 15.5586 
11.7638 -11.1077 15.9108 12.4778 -14.2324 15.3112 11.0039 -0.0572612 19.0124 
12.6546 -14.9967 15.2746 11.0216 2.60433 19.9884 11.1586 -4.06946 17.8519 
11.2557 -5.93324 17.3442 11.1005 -2.334 18.3884 11.4113 -7.95034 16.848 
11.6555 -9.97934 16.393 11.9984 -11.7998 16.0058 12.3609 -13.3419 15.7093 
11.0795 -0.674886 18.9839 12.821 -15.7462 15.3143 11.0812 1.07697 19.6316 
11.2811 -4.81989 17.8772 11.2058 -3.02756 18.3927 11.4015 -6.74282 17.3804 
11.5893 -8.77895 16.9018 11.1339 2.17217 20.1622 11.1659 -1.31585 18.9608 
12.5968 -14.0578 15.7918 11.8756 -10.7355 16.4746 12.2331 -12.4229 16.1307 
11.1567 0.435352 19.6057 12.7932 -14.825 15.8009 11.1874 3.33638 20.7139 
11.3196 -3.75199 18.4088 11.4144 -5.59439 17.9114 11.2622 -1.98891 18.9472 
11.5607 -7.56326 17.4265 11.7864 -9.58689 16.9689 12.1081 -11.4342 16.5771 
11.2352 -0.223515 19.5622 12.4792 -13.1188 16.2258 11.2329 1.61083 20.2398 
12.9684 -15.6374 15.8233 11.443 -4.50079 18.4377 11.3677 -2.69905 18.946 
11.5592 -6.38769 17.954 12.7167 -13.8613 16.2923 11.736 -8.38708 17.483 
11.3236 -0.903508 19.5246 11.2976 2.79782 20.8399 12.0027 -10.3566 17.0514 
12.3537 -12.1534 16.6678 11.3095 0.933113 20.1939 12.9252 -14.6558 16.3141 
11.3609 4.01654 21.4299 11.4829 -3.4345 18.9627 11.5768 -5.26925 18.477 
11.4218 -1.62298 19.4963 11.7172 -7.19637 18.0048 11.3901 0.231362 20.1298 
11.9296 -9.20051 17.5502 12.6009 -12.8926 16.7437 12.2369 -11.1217 17.1305 
11.3876 2.14803 20.8521 13.1055 -15.4933 16.3346 11.5302 -2.36103 19.4927 
11.6077 -4.18978 18.995 11.4811 -0.51718 20.0656 11.7214 -6.05457 18.5247 
12.8387 -13.6627 16.7985 11.8906 -8.01473 18.0631 11.4635 1.41511 20.7717 
12.1434 -10.0111 17.6174 11.467 3.39082 21.5085 12.4809 -11.8861 17.2025 
13.051 -14.4697 16.8279 11.584 -1.26641 20.0353 11.6482 -3.1157 19.5117 
11.5457 0.603539 20.6573 11.7422 -4.96065 19.0385 11.5441 4.64691 22.1287 
11.8788 -6.85487 18.5783 12.0818 -8.84426 18.1216 12.7253 -12.6578 17.2646 
11.5463 2.64298 21.4476 12.3738 -10.8136 17.6803 13.2334 -15.3158 16.8507 
11.6169 1.71153 21.2648 11.6435 -0.159669 20.5973 11.6961 -2.02489 20.0344 
11.775 -3.8853 19.5476 12.9599 -13.4447 17.314 11.887 -5.74389 19.0897 
12.0508 -7.67306 18.6331 12.2915 -9.67545 18.177 12.6128 -11.6095 17.7387 
11.6437 3.90486 22.145 13.1714 -14.2562 17.3499 11.694 2.77431 21.8627 
11.7104 0.937416 21.1814 11.7508 -0.915662 20.5723 11.8167 -2.79841 20.0572 
11.9106 -4.66552 19.5953 12.0437 -6.54087 19.1428 12.8512 -12.4027 17.7925 
11.7325 5.22708 22.7843 12.2391 -8.50566 18.6846 12.5163 -10.4999 18.2286 
13.3527 -15.1065 17.3718 11.7847 3.72953 22.4299 11.7864 2.01082 21.7833 
11.8132 0.195412 21.1344 11.8657 -1.68573 20.5752 13.0798 -13.2002 17.8406 
11.9453 -3.58522 20.0974 12.0552 -5.45195 19.6482 12.2141 -7.35279 19.1941 
12.7481 -11.3153 18.2789 12.4443 -9.3427 18.7321 11.8498 4.75638 22.9238 
13.2875 -14.012 17.8833 11.885 1.29142 21.7238 11.8784 3.05052 22.3977 
11.9223 -0.556437 21.1128 11.988 -2.47574 20.6015 12.0812 -4.37801 20.1483 
12.2109 -6.24453 19.7007 12.9785 -12.1229 18.3294 12.3995 -8.17785 19.2406 
12.6626 -10.1762 18.7773 11.9466 5.83659 23.4576 13.4639 -14.869 17.8954 
11.97 4.16381 23.0036 11.9885 0.568044 21.68 11.9708 2.36539 22.3385 
12.038 -1.33372 21.1168 13.1993 -12.9273 18.3797 12.1175 -3.28034 20.6458 
12.2251 -5.16866 20.2028 12.3794 -7.04556 19.7489 12.886 -11.0024 18.8235 
12.6001 -9.00994 19.2836 12.0584 5.25374 23.539 13.4006 -13.7352 18.4315 
12.0646 3.47642 22.9651 12.0673 1.67229 22.2786 12.0973 -0.179816 21.6564 
12.1611 -2.13851 21.1454 12.2531 -4.08683 20.6997 12.3795 -5.95652 20.2547 
13.1072 -11.8196 18.8741 12.5618 -7.85663 19.7925 12.8112 -9.84297 19.3255 
13.5664 -14.6074 18.4162 12.1511 6.39365 24.0357 12.1633 4.60371 23.5595 
12.1564 2.78339 22.8984 12.1685 0.958962 22.229 13.3188 -12.6276 18.9306 
12.2128 -0.962179 21.6592 12.2905 -2.96023 21.1929 12.396 -4.88357 20.7559 
12.5461 -6.74463 20.3012 13.0253 -10.6726 19.3712 12.757 -8.67566 19.8325 
12.2598 5.74802 24.0885 13.5119 -13.4264 18.997 12.255 3.90852 23.5117 
12.2511 2.08506 22.8299 12.2755 0.214721 22.2004 12.3355 -1.77887 21.6883 
12.4255 -3.7814 21.2504 12.5489 -5.6679 20.8078 13.2362 -11.4948 19.4245 
12.725 -7.53804 20.342 12.9595 -9.49897 19.873 13.6591 -14.3292 18.923 
12.3461 6.91301 24.5346 12.3576 5.06169 24.0837 12.3448 3.20831 23.4398 
12.3503 1.37029 22.7729 12.3897 -0.56933 22.1996 13.4375 -12.3048 19.4904 
12.4643 -2.61558 21.7386 12.5674 -4.58618 21.3087 12.7132 -6.44355 20.8525 
13.1627 -10.3227 19.9196 12.9132 -8.33718 20.38 13.7403 -14.0447 19.4007 
13.106 -9.14201 20.4203 12.8874 -7.21685 20.8914 12.7186 -5.36963 21.3615 
12.5983 -3.45144 21.8 12.4466 4.35277 24.0306 12.4372 2.50505 23.3662 
12.5108 -1.39245 22.2282 12.4554 0.627279 22.7383 12.4548 6.23496 24.5792 
13.3611 -11.1386 19.9775 13.6223 -13.0919 19.5808 13.0678 -7.99152 20.9281 
13.2968 -9.94899 20.469 12.8797 -6.1343 21.4055 12.7388 -4.26694 21.8618 
12.6379 -2.23958 22.2808 13.549 -11.9341 20.056 12.5673 -0.155015 22.7339 
12.5342 1.79039 23.305 12.5347 3.64332 23.9578 12.5499 5.52837 24.5684 
12.5324 7.39951 24.9691 13.8167 -13.7345 19.8828 13.2496 -8.77119 20.969 
13.0484 -6.88771 21.4429 13.4809 -10.7455 20.5345 12.8879 -5.05276 21.9164 
12.7706 -3.0893 22.3463 12.6856 -0.977068 22.7615 12.6365 1.05145 23.2666 
12.6253 2.93493 23.8843 12.638 4.80843 24.518 13.7213 -12.678 20.1776 
12.6443 6.71325 25.019 13.2201 -7.63686 21.4791 13.4273 -9.5518 21.0216 
13.0453 -5.80946 21.9612 12.9098 -3.91702 22.4133 12.8099 -1.83046 22.8154 
[...]
POINT_DATA 724
VECTORS velocity double
0.962622 -1.48859 1.47154 1.13968 -0.990295 1.56706 0.756251 -1.94491 1.37095 
1.27463 -0.495674 1.62743 0.596669 -2.29198 1.33707 0.79613 -1.85699 1.31407 
1.37152 -0.0283481 1.64686 0.514661 -2.62225 1.40017 0.944595 -1.50877 1.36736 
0.633243 -2.18573 1.24283 1.07292 -1.13513 1.4172 1.19245 -0.712482 1.47077 
1.42733 0.347799 1.62671 0.525442 -2.45516 1.2558 0.527963 -3.00291 1.55643 
0.724999 -1.97658 1.18308 1.24608 -0.433737 1.44998 0.860029 -1.65668 1.20162 
0.490353 -2.73873 1.35444 0.559809 -2.29987 1.12422 1.45293 0.651999 1.57354 
0.630123 -3.49882 1.78451 0.999976 -1.24406 1.24243 1.30299 -0.0931772 1.43183 
0.540395 -3.11186 1.54587 0.473814 -2.56052 1.17608 0.630965 -2.11841 1.0373 
1.08155 -0.896727 1.22584 1.45253 0.884067 1.49165 0.743298 -1.8546 1.02053 
0.764572 -4.01506 2.00327 0.485701 -2.8762 1.34715 0.483259 -2.40457 1.01235 
1.3344 0.203787 1.38378 0.611553 -3.40895 1.66711 0.84435 -1.55692 1.01366 
1.14789 -0.536497 1.20022 0.528976 -2.25264 0.893115 0.438656 -2.65295 1.12769 
0.926464 -4.63309 2.2338 1.42948 1.05349 1.38221 1.35073 0.490656 1.31829 
0.921656 -1.2461 0.987215 0.755116 -3.94346 1.9144 0.60594 -2.06353 0.829977 
0.510071 -3.02724 1.38588 0.417721 -2.48729 0.926457 1.20306 -0.15191 1.16494 
0.686265 -1.82918 0.78813 0.64154 -3.50528 1.65605 0.427463 -2.73673 1.11636 
0.431231 -2.35984 0.767152 0.997493 -0.878349 0.966055 1.39407 1.1507 1.27015 
0.91876 -4.57252 2.15957 1.09477 -5.31486 2.45802 1.29225 0.441873 1.17602 
0.476802 -2.22297 0.658213 0.764555 -1.53813 0.754037 0.529936 -3.11106 1.38118 
0.372959 -2.54324 0.873525 1.09154 -0.390236 0.973178 0.809528 -4.12483 1.93553 
1.29499 0.721187 1.10307 0.539614 -2.03792 0.584649 0.352795 -2.4216 0.671633 
0.428221 -2.79134 1.1032 0.856729 -1.14784 0.745088 0.6895 -3.66344 1.68138 
1.03821 -5.05993 2.30899 1.23283 -5.90991 2.63817 1.34091 1.21213 1.13101 
1.13905 -0.0246777 0.947763 0.367226 -2.32034 0.519388 0.617738 -1.77 0.541127 
0.347597 -2.57033 0.839218 0.564066 -3.22306 1.40181 0.904548 -4.49714 2.04734 
0.926681 -0.764475 0.727661 1.16186 0.289331 0.900615 1.34084 -6.38714 2.78236 
1.12899 -5.46135 2.41711 1.24021 0.803214 0.954507 0.410401 -2.18054 0.414037 
0.297083 -2.44073 0.606559 0.444047 -2.85316 1.11267 0.756045 -3.90761 1.75145 
0.695698 -1.44037 0.514833 1.27616 1.23191 0.981476 0.983684 -0.374244 0.706079 
0.962309 -4.75253 2.10043 0.281387 -2.35938 0.419004 0.608255 -3.37142 1.44391 
0.340462 -2.58784 0.830895 0.472059 -1.96748 0.347496 0.77283 -1.05198 0.500331 
1.27128 -6.10159 2.63398 1.07132 0.171865 0.730175 1.43957 -6.79994 2.92616 
0.797036 -4.08367 1.77951 1.15889 0.735641 0.788793 0.468862 -2.92839 1.13573 
0.263477 -2.43246 0.575116 0.298491 -2.26351 0.281691 1.13087 -5.50482 2.37377 
0.548621 -1.66194 0.313327 1.20865 1.21939 0.839693 0.874002 -0.532375 0.522897 
0.637762 -3.48975 1.45993 0.972987 -4.84071 2.07629 0.346596 -2.60822 0.840839 
0.21942 -2.35248 0.360151 0.345008 -2.09603 0.192542 0.648227 -1.23062 0.317149 
0.976725 0.0475156 0.56679 1.31693 -6.31893 2.69103 1.5094 -7.02985 3.04989 
0.810394 -4.18148 1.76442 1.06706 0.614453 0.625409 0.490181 -3.00301 1.15036 
0.24854 -2.4133 0.571494 0.210932 -2.28488 0.194075 1.14872 -5.63264 2.37709 
1.14151 1.18679 0.710235 0.42158 -1.81279 0.151558 0.756067 -0.713191 0.348859 
1.42343 -6.71781 2.88927 0.65443 -3.59171 1.45778 0.978987 -4.9325 2.05738 
0.357984 -2.63824 0.856309 0.180468 -2.31536 0.338078 0.239771 -2.15955 0.0818851 
0.856412 -0.173776 0.393741 0.516205 -1.42005 0.150723 1.28684 -6.22479 2.62623 
1.0349 0.766842 0.545535 1.57213 -7.12015 3.20487 0.819923 -4.29545 1.75326 
0.506507 -3.08732 1.15899 0.246115 -2.39941 0.585194 0.14784 -2.25845 0.150302 
0.613477 -0.965125 0.174685 1.12431 -5.59296 2.3169 0.300309 -1.93061 0.0237195 
0.901532 0.208462 0.397875 1.05981 1.12967 0.567089 1.45104 -6.75102 2.97162 
0.665998 -3.71015 1.45549 0.370577 -2.68906 0.874261 0.971774 -4.99265 2.02634 
0.160284 -2.26923 0.345395 0.687689 -0.542195 0.19589 0.153358 -2.17103 0.0174693 
0.37948 -1.60013 0.00811548 1.27097 -6.17924 2.60397 0.932652 0.615118 0.393895 
1.62174 -7.0659 3.38783 0.519002 -3.19521 1.16722 0.819919 -4.40142 1.73648 
0.251432 -2.40793 0.610656 0.756272 -0.107719 0.223832 0.106888 -2.20352 0.14771 
0.192117 -1.9981 -0.0604694 0.458582 -1.21659 0.0156399 1.1181 -5.63203 2.30669 
0.979425 1.06135 0.441575 1.38603 -6.51309 2.86947 1.5318 -6.80707 3.22935 
0.670133 -3.83712 1.44994 0.382608 -2.77211 0.894532 0.154652 -2.23705 0.376027 
0.967945 -5.07775 2.0173 0.089364 -2.13585 0.000470587 0.538163 -0.791796 0.0396688 
0.251691 -1.72966 -0.0939494 0.778626 0.190199 0.218882 1.24808 -6.09622 2.58932 
0.85677 0.639442 0.285075 1.6763 -6.92009 3.65909 0.526112 -3.32599 1.17359 
0.261057 -2.45431 0.643764 0.817901 -4.51995 1.72984 0.0858665 -2.14386 0.178675 
0.105106 -2.00583 -0.0947978 0.32411 -1.37847 -0.0952937 0.592191 -0.413569 0.0563685 
1.10654 -5.63831 2.30639 0.886778 0.973797 0.316034 1.40761 -6.47336 2.98778 
0.391805 -2.89072 0.914378 0.670264 -3.97912 1.44864 0.158811 -2.24007 0.420865 
0.0487925 -2.07276 0.0249309 1.56838 -6.69237 3.44531 0.96059 -5.14444 2.01904 
0.671207 0.0607016 0.103856 0.147931 -1.78291 -0.144394 0.392213 -0.996085 -0.0803056 
1.26215 -6.09543 2.67721 0.747838 0.509566 0.163825 1.73588 -6.77731 3.99249 
0.528578 -3.47913 1.1804 0.27123 -2.54624 0.678685 0.812472 -4.63126 1.73153 
0.0801221 -2.10665 0.230922 0.0441269 -1.96394 -0.0830808 0.206113 -1.47664 -0.158163 
1.11316 -5.67403 2.36524 0.475818 -0.539469 -0.0423261 1.43162 -6.40211 3.14837 
0.793805 0.880575 0.210417 0.39728 -3.0437 0.933252 0.665761 -4.12106 1.45073 
0.167626 -2.29273 0.470486 0.562188 -0.0599823 0.0102074 0.0285075 -2.01096 0.0773778 
0.961185 -5.21542 2.05514 1.61294 -6.59434 3.71672 0.0682458 -1.77732 -0.146491 
0.282274 -1.08305 -0.143516 1.27849 -6.06296 2.7993 0.643583 0.3987 0.070705 
1.80097 -6.68592 4.35794 0.526491 -3.64536 1.18825 0.279511 -2.6842 0.712137 
0.807218 -4.73077 1.74842 0.0837512 -2.114 0.291746 1.12077 -5.67596 2.44951 
0.00653928 -1.90082 -0.0365558 0.368931 -0.630656 -0.106941 0.118491 -1.4947 -0.172891 
1.46233 -6.33861 3.35455 0.699369 0.783238 0.123414 0.659017 -4.25629 1.46069 
0.398771 -3.22345 0.951411 0.956749 -5.23968 2.09814 0.177216 -2.39958 0.51881 
0.458466 -0.155571 -0.055839 0.0227538 -1.97899 0.144231 1.29668 -6.02084 2.94963 
0.0148832 -1.72981 -0.112525 1.66152 -6.53725 4.01429 0.189101 -1.12365 -0.168102 
0.541435 0.297744 0.00147433 0.798098 -4.79582 1.77197 0.521343 -3.81567 1.20006 
1.11689 -5.63159 2.52364 0.284929 -2.86198 0.743493 1.86137 -6.64449 4.69345 
0.0920279 -2.17737 0.353124 -0.0123398 -1.84559 0.0280773 0.272407 -0.69071 -0.139769 
1.49203 -6.29674 3.57175 0.0516651 -1.47287 -0.152267 0.60348 0.683849 0.0547296 
1.28671 -5.94107 3.03204 0.946868 -5.228 2.14493 0.649239 -4.36994 1.47666 
0.397258 -3.42026 0.97115 0.359393 -0.234387 -0.0962599 0.185907 -2.55718 0.564299 
0.0257903 -1.99453 0.213619 -0.0188412 -1.67243 -0.0553885 0.111393 -1.13102 -0.16072 
1.69791 -6.51081 4.26775 0.440723 0.203312 -0.0459318 1.45943 -6.20186 3.59208 
1.10592 -5.5735 2.5943 0.786516 -4.83185 1.80399 0.513644 -3.97749 1.21671 
0.288023 -3.07006 0.77472 0.101964 -2.29676 0.411042 0.185912 -0.72763 -0.144928 
1.90154 -6.62401 4.92737 -0.0183478 -1.82208 0.100124 0.0028338 -1.43159 -0.106612 
0.507063 0.584879 0.00402522 1.61129 -6.39156 4.10955 1.27309 -5.87704 3.11488 
0.935845 -5.20518 2.20277 0.638095 -4.46021 1.50126 0.266032 -0.298795 -0.112967 
0.393699 -3.62228 0.99457 0.193518 -2.75641 0.608095 0.0340615 -2.06518 0.280875 
0.0483671 -1.11749 -0.128681 -0.0373323 -1.62872 0.0135205 1.77867 -6.5443 4.6357 
0.342653 0.116362 -0.0727308 1.09684 -5.53525 2.68009 1.43838 -6.14603 3.66301 
0.775273 -4.85131 1.84874 0.505032 -4.12346 1.24091 0.289887 -3.29662 0.808592 
0.112797 -2.46694 0.466241 0.11048 -0.746366 -0.127078 -0.0155839 -1.84482 0.172234 
-0.0304043 -1.38945 -0.0460656 1.90953 -6.59248 5.01949 0.412109 0.489502 -0.029458 
1.61719 -6.38374 4.23882 0.926905 -5.19083 2.27551 1.26341 -5.85114 3.21305 
0.627405 -4.52868 1.53685 0.180386 -0.34921 -0.108731 0.389662 -3.81861 1.02456 
0.20091 -2.98655 0.653188 0.045613 -2.19074 0.344535 -0.000158934 -1.09453 -0.0801772 
-0.0442232 -1.61661 0.0851243 1.77056 -6.5102 4.69098 0.249177 0.038322 -0.080736 
1.43966 -6.15222 3.78271 1.08916 -5.52609 2.77346 0.765529 -4.86439 1.90598 
0.496662 -4.24646 1.27393 0.291842 -3.52907 0.848091 0.12452 -2.67814 0.520686 
0.0476163 -0.752192 -0.092338 -0.00689865 -1.92004 0.240405 -0.0503118 -1.36327 0.0198747 
0.321534 0.400602 -0.0474079 1.87602 -6.54294 4.92731 1.60561 -6.36151 4.28896 
1.26034 -5.86783 3.31947 0.918446 -5.19308 2.35424 0.104962 -0.386495 -0.0878522 
0.617383 -4.57671 1.58178 0.385969 -3.99621 1.06211 0.208871 -3.23367 0.702245 
0.0594264 -2.36487 0.405182 -0.0348846 -1.07469 -0.0238998 -0.0425012 -1.64802 0.153373 
1.73839 -6.45221 4.62529 0.162996 -0.0292535 -0.0727539 1.4284 -6.15131 3.84345 
1.08234 -5.54836 2.86391 0.755534 -4.87811 1.96796 0.488348 -4.33934 1.31366 
0.294359 -3.75105 0.894259 0.13732 -2.91697 0.576755 -0.00191962 -0.752904 -0.0481551 
0.00587666 -2.04674 0.303561 -0.0593496 -1.36766 0.0840125 0.238942 0.320546 -0.0526612 
1.80711 -6.48326 4.68461 1.57781 -6.31329 4.25501 1.24755 -5.88609 3.38166 
0.908497 -5.21633 2.42759 0.606446 -4.60748 1.62953 0.0418416 -0.413831 -0.0564036 
0.382063 -4.14073 1.10496 0.217677 -3.48042 0.756791 0.0750354 -2.57595 0.46465 
-0.0573258 -1.07258 0.0325954 -0.0344301 -1.72849 0.215664 0.167576 0.250511 -0.0491648 
-0.0597224 -1.41293 0.142319 0.0216758 -2.21826 0.363087 0.151238 -3.16641 0.636518 
0.296774 -3.94372 0.94538 1.40374 -6.12576 3.83599 1.06731 -5.57895 2.92064 
0.478419 -4.39825 1.35405 0.742994 -4.8995 2.02415 1.68179 -6.37217 4.44431 
-0.0388578 -0.762501 -0.00162517 0.0872693 -0.0845836 -0.0531928 -0.0215882 -1.85719 0.272409 
-0.0691788 -1.10035 0.0843642 0.0922228 -2.80927 0.525642 0.226689 -3.70664 0.816294 
0.376057 -4.23999 1.14712 -0.00951148 -0.447438 -0.0207554 0.592142 -4.62825 1.67063 
0.891208 -5.25075 2.47477 1.22334 -5.88652 3.38859 1.53245 -6.23361 4.13158 
1.71001 -6.42312 4.32844 0.103114 0.184246 -0.0400609 -0.0532285 -1.50383 0.193954 
0.0398587 -2.42284 0.421807 -0.0640261 -0.791942 0.0419742 0.165794 -3.40671 0.700922 
0.297055 -4.08856 0.996017 0.464344 -4.4265 1.38627 0.723549 -4.92906 2.05907 
1.04191 -5.60088 2.93196 1.36535 -6.06407 3.7559 0.0213502 -0.150952 -0.0278674 
1.60299 -6.28065 4.16312 -0.0050972 -2.02673 0.32615 -0.072024 -1.16615 0.129315 
0.110554 -3.04644 0.590437 0.234142 -3.89105 0.877071 0.364844 -4.28937 1.17895 
0.571299 -4.64743 1.69368 -0.0485263 -0.493609 0.0138416 0.864028 -5.28493 2.48381 
1.18757 -5.85294 3.33538 1.47061 -6.12901 3.92395 1.59079 -6.36544 3.89083 
0.0428276 0.115836 -0.0272175 -0.0413054 -1.63849 0.240817 0.0598577 -2.64426 0.483018 
-0.0782714 -0.848301 0.0790665 0.179663 -3.61676 0.768694 0.291849 -4.17324 1.03679 
0.442626 -4.43413 1.39878 0.695378 -4.96543 2.06367 1.00595 -5.59685 2.89249 
1.31448 -5.96544 3.60537 -0.0280785 -0.210482 -0.0037811 1.50371 -6.18729 3.79503 
0.0142183 -2.2241 0.380738 -0.0674248 -1.27162 0.167923 0.129073 -3.26712 0.660001 
0.236908 -4.01596 0.931389 0.344643 -4.29577 1.18875 -0.074275 -0.549475 0.0415452 
0.540894 -4.6702 1.6872 1.14139 -5.7763 3.22206 0.828686 -5.30853 2.45442 
1.39399 -6.01231 3.6409 -0.00934377 0.0458039 -0.0142947 1.4528 -6.30455 3.39289 
-0.0251669 -1.80749 0.286601 0.0809087 -2.86326 0.549479 -0.0830534 -0.932264 0.108154 
0.190271 -3.77615 0.834733 0.277002 -4.19661 1.05526 0.410249 -4.4344 1.38111 
0.657238 -4.99817 2.02972 1.25099 -5.83676 3.38672 0.965587 -5.55859 2.81285 
-0.0637579 -0.27278 0.0142968 1.38305 -6.09742 3.34225 0.0355472 -2.43154 0.440146 
-0.0569718 -1.41113 0.203232 0.145867 -3.45019 0.732251 0.230648 -4.07186 0.96706 
0.312186 -4.27546 1.16563 -0.0890636 -0.622234 0.0607852 0.499457 -4.69557 1.64375 
0.785716 -5.30165 2.38225 1.0953 -5.66235 3.0661 1.30301 -5.8943 3.29728 
-0.0512354 -0.0269306 -0.00558722 -0.00582911 -1.99598 0.336055 0.10163 -3.05867 0.621783 
1.29666 -6.22782 2.84477 -0.0802521 -1.04562 0.13212 0.193641 -3.86963 0.888987 
0.248472 -4.1712 1.03863 0.365477 -4.43655 1.32592 0.609871 -5.01273 1.95508 
0.921153 -5.47177 2.68825 1.19027 -5.70853 3.11004 -0.0877695 -0.344519 0.0241016 
1.24047 -5.9228 2.90732 -0.0418351 -1.57594 0.240706 0.0578359 -2.62874 0.507138 
0.157668 -3.57686 0.800304 0.210584 -4.06257 0.969467 -0.0948207 -0.716813 0.0734681 
0.265536 -4.24675 1.10214 0.446967 -4.71441 1.55992 0.73746 -5.24981 2.26965 
1.04582 -5.52217 2.85901 -0.08236 -0.104975 -0.00439857 0.0157961 -2.18621 0.393718 
1.13025 -5.6284 2.802 -0.0711943 -1.18534 0.156453 0.11954 -3.20976 0.696412 
0.184729 -3.89197 0.916796 1.14865 -6.13751 2.34079 0.203643 -4.11835 0.977415 
0.872469 -5.33885 2.5185 0.308138 -4.44081 1.23013 0.554523 -4.99189 1.83986 
-0.101734 -0.431047 0.0263786 -0.0229728 -1.75178 0.286066 1.10994 -5.81397 2.4428 
0.0792535 -2.79434 0.581252 0.985049 -5.37433 2.59865 0.159858 -3.63511 0.851664 
-0.0929247 -0.834162 0.0845748 0.172901 -4.00566 0.925669 0.68268 -5.14384 2.11353 
0.204723 -4.22159 0.996055 0.384517 -4.71251 1.436 -0.103187 -0.192706 -0.0112584 
1.02143 -5.48142 2.41489 0.0382562 -2.35671 0.46146 -0.0568979 -1.34185 0.187668 
0.130758 -3.2994 0.764013 0.809977 -5.16761 2.29167 0.158791 -3.8524 0.902629 
0.491952 -4.92258 1.6851 0.14226 -4.0603 0.868548 0.23993 -4.44046 1.09586 
0.993321 -6.01619 1.82839 -0.106775 -0.536653 0.0255905 0.890431 -5.19056 2.26388 
-0.00162525 -1.91899 0.343172 0.0966477 -2.9073 0.656327 0.970118 -5.67469 1.97107 
0.617684 -4.98511 1.90922 0.147386 -3.62465 0.870293 -0.0844286 -0.969213 0.100981 
0.116322 -3.92701 0.829278 0.315033 -4.6774 1.2776 0.131748 -4.20374 0.850572 
-0.114255 -0.296378 -0.0221828 0.902006 -5.31916 2.00364 -0.0385195 -1.49852 0.231122 
0.726735 -4.96138 2.00264 0.0590404 -2.48467 0.536211 0.130485 -3.3183 0.809824 
0.11321 -3.77415 0.835834 0.423693 -4.79985 1.49464 0.0664003 -4.01181 0.715528 
0.164657 -4.42674 0.930638 0.835325 -5.85688 1.32478 -0.103507 -0.662157 0.0296625 
0.785571 -4.99513 1.89523 0.0202781 -2.05555 0.411943 0.105463 -2.94784 0.718754 
-0.0706311 -1.10725 0.128612 0.542909 -4.78022 1.65995 0.823513 -5.50941 1.48993 
0.116786 -3.56349 0.842966 0.0424014 -3.85048 0.682083 0.243757 -4.60074 1.0954 
0.0501827 -4.18856 0.672994 0.776176 -5.14808 1.57457 -0.115438 -0.424546 -0.0273281 
0.635617 -4.73515 1.67646 -0.0172335 -1.63944 0.29032 0.073146 -2.53457 0.603292 
0.115307 -3.28061 0.820909 0.048236 -3.68415 0.714031 0.357137 -4.62272 1.28187 
-0.0202171 -3.97768 0.526648 0.0865988 -4.38624 0.743036 0.677018 -5.65048 0.839267 
-0.0921283 -0.802921 0.0487147 0.672778 -4.7905 1.50003 -0.051958 -1.2449 0.174651 
0.103286 -2.93152 0.758796 0.0357062 -2.09752 0.471644 0.066837 -3.47577 0.762485 
0.472555 -4.53742 1.38543 -0.0452236 -3.79054 0.49231 -0.0356264 -4.16618 0.472824 
0.1747 -4.47062 0.896756 0.668637 -5.31205 0.992473 0.648991 -4.96419 1.15105 
-0.105208 -0.587169 -0.0101276 0.546143 -4.50481 1.30548 0.0799611 -2.53154 0.65863 
0.0831712 -3.20422 0.786996 -0.0334793 -3.60402 0.542298 -0.0052568 -1.64443 0.327843 
-0.113296 -3.95275 0.312071 0.294376 -4.3937 1.05107 0.0107063 -4.30558 0.543115 
0.520657 -5.3844 0.381595 -0.0596741 -1.08978 0.138892 0.556323 -4.63162 1.02238 
0.0877856 -2.86587 0.76439 -0.00116731 -3.38676 0.629343 0.0467294 -2.09321 0.526373 
-0.142191 -3.74997 0.270642 0.400245 -4.27746 1.08264 -0.121461 -4.1218 0.259371 
0.11339 -4.28092 0.692034 0.5306 -4.97663 0.634096 -0.0851602 -0.759178 0.0400425 
0.00189727 -1.60016 0.353963 0.0342614 -3.11647 0.704858 0.450936 -4.29014 0.916035 
0.07655 -2.46412 0.686094 -0.127843 -3.54428 0.330329 -0.208543 -3.92547 0.0818692 
-0.0588515 -4.17181 0.339786 0.238699 -4.12265 0.807182 0.390959 -5.09725 0.0229921 
-0.0368781 -1.20106 0.208433 0.447555 -4.5018 0.596494 0.0592339 -2.78507 0.732931 
0.0471329 -1.99042 0.545081 -0.0846277 -3.31301 0.44867 -0.243675 -3.72149 0.0289705 
-0.202435 -4.04082 0.0433385 0.330608 -4.0209 0.755169 0.0602652 -4.03635 0.484518 
0.400091 -4.74588 0.230441 0.0656143 -2.39406 0.693212 -0.031359 -3.03813 0.572822 
-0.0533714 -0.958384 0.138983 0.357149 -4.12734 0.494284 -0.230047 -3.50463 0.0900308 
-0.301061 -3.87975 -0.152397 -0.117253 -3.9791 0.143786 0.00738907 -1.50662 0.377311 
0.184723 -3.83786 0.551873 0.268694 -4.74213 -0.289923 0.313162 -4.37157 0.0742845 
0.050763 -1.97219 0.588464 0.0149747 -2.71686 0.657456 -0.180545 -3.26123 0.227434 
-0.344664 -3.69058 -0.220275 -0.274084 -3.91112 -0.164217 0.257272 -3.78766 0.428768 
0.0177661 -3.74861 0.281074 0.0412294 -2.36413 0.673152 -0.0206414 -1.13205 0.258277 
-0.114321 -2.98222 0.388159 0.255501 -3.91727 0.123227 -0.334557 -3.47271 -0.164523 
-0.386261 -3.80131 -0.379555 -0.16479 -3.73409 -0.0406728 0.0269969 -1.5862 0.471659 
0.135056 -3.55311 0.291783 0.177675 -4.39417 -0.498848 0.0455675 -1.99974 0.623183 
0.204232 -4.09054 -0.246227 -0.0516942 -2.67376 0.519807 -0.281632 -3.21898 -0.0162178 
-0.333783 -3.72867 -0.355252 -0.0232715 -3.44821 0.0796674 -0.440457 -3.64281 -0.465948 
0.179782 -3.55863 0.0879448 -0.00611245 -2.34807 0.591532 0.0111651 -1.3064 0.396952 
-0.20551 -2.92647 0.171204 0.0763144 -3.27799 0.0445221 -0.204868 -3.45164 -0.213773 
-0.459221 -3.67961 -0.588588 -0.435353 -3.43465 -0.418737 0.0345736 -1.67762 0.550118 
0.146163 -3.70092 -0.291627 0.0963256 -3.97906 -0.655855 0.0189499 -2.0187 0.599823 
-0.126326 -2.60016 0.345333 0.103912 -3.29558 -0.164768 -0.0678947 -3.14347 -0.116526 
-0.376843 -3.49 -0.519109 -0.379923 -3.17435 -0.262861 -0.525361 -3.56564 -0.695335 
-0.0594209 -2.24683 0.467952 0.0244859 -1.47245 0.503363 0.0414202 -3.59986 -0.733265 
0.0733473 -3.37218 -0.464227 0.0146004 -2.98766 -0.171815 -0.293069 -2.86203 -0.049215 
-0.229502 -3.12687 -0.360793 -0.514265 -3.50511 -0.765729 -0.526862 -3.38057 -0.660289 
0.00427903 -1.8379 0.548461 0.034684 -2.97881 -0.348108 -0.191908 -2.49813 0.176232 
-0.398692 -3.19908 -0.642608 -0.0964955 -2.80946 -0.286251 -0.473203 -3.12952 -0.508144 
-0.592893 -3.44388 -0.892195 -0.084601 -2.07058 0.386478 -0.00197733 -3.19133 -0.762146 
0.0158969 -3.00786 -0.565466 -0.00336678 -1.62529 0.498309 -0.382613 -2.81936 -0.285417 
-0.548255 -3.28206 -0.898738 -0.235264 -2.77688 -0.468004 -0.0293493 -2.66799 -0.371517 
-0.602654 -3.28946 -0.874171 -0.269243 -2.46272 -0.0271704 -0.406151 -2.88935 -0.728092 
-0.108518 -2.47651 -0.414067 -0.637503 -3.26986 -1.0433 -0.0208688 -2.65059 -0.549753 
-0.551674 -3.05175 -0.728635 -0.175437 -2.12781 0.166959 -0.0727097 -1.7717 0.365804 
-0.0339009 -2.7663 -0.743989 -0.240718 -2.45742 -0.546898 -0.557128 -3.01146 -0.978378 
-0.455049 -2.73632 -0.49231 -0.655723 -3.14567 -1.04424 -0.0563116 -2.35669 -0.52014 
-0.334888 -2.3689 -0.219434 -0.38886 -2.54249 -0.760054 -0.128617 -2.19154 -0.49207 
-0.0542384 -2.39337 -0.69601 -0.653896 -3.03867 -1.13608 -0.20078 -1.97036 0.0698664 
-0.606231 -2.92484 -0.901729 -0.533686 -2.68709 -0.99087 -0.224936 -2.10916 -0.578251 
-0.0837802 -2.0612 -0.544744 -0.491056 -2.58096 -0.620701 -0.679913 -2.93985 -1.15661 
-0.0689378 -2.07675 -0.63669 -0.355831 -2.18975 -0.315198 -0.343666 -2.15786 -0.732332 
-0.129002 -1.85818 -0.529716 -0.631316 -2.73548 -1.1516 -0.614273 -2.72889 -0.960207 
-0.476756 -2.30877 -0.933229 -0.086795 -1.76269 -0.567376 -0.190291 -1.74588 -0.561913 
-0.509334 -2.39367 -0.716202 -0.669622 -2.71798 -1.15668 -0.650849 -2.59819 -1.19021 
-0.279286 -1.7679 -0.657612 -0.545339 -2.2792 -1.04861 -0.113157 -1.53479 -0.520136 
-0.620146 -2.50646 -1.0345 -0.387761 -1.88743 -0.808987 -0.161392 -1.41308 -0.520233 
-0.643206 -2.42736 -1.1713 -0.249369 -1.45427 -0.606908 -0.554902 -2.12672 -1.06662 
-0.399121 -1.73114 -0.823461 
